                  Welcome to Q-Chem
     A Quantum Leap Into The Future Of Chemistry


 Q-Chem 6.0 (devel), Q-Chem, Inc., Pleasanton, CA (2022)

 E. Epifanovsky,  A. T. B. Gilbert,  Xintian Feng,  Joonho Lee,  Yuezhi Mao,  
 N. Mardirossian,  P. Pokhilko,  A. White,  M. Wormit,  M. P. Coons,  
 A. L. Dempwolff,  Zhengting Gan,  D. Hait,  P. R. Horn,  L. D. Jacobson,  
 I. Kaliman,  J. Kussmann,  A. W. Lange,  Ka Un Lao,  D. S. Levine,  Jie Liu,  
 S. C. McKenzie,  A. F. Morrison,  K. Nanda,  F. Plasser,  D. R. Rehn,  
 M. L. Vidal,  Zhi-Qiang You,  Ying Zhu,  B. Alam,  B. Albrecht,  
 A. Aldossary,  E. Alguire,  J. H. Andersen,  V. Athavale,  D. Barton,  
 K. Begam,  A. Behn,  N. Bellonzi,  Y. A. Bernard,  E. J. Berquist,  
 H. Burton,  A. Carreras,  K. Carter-Fenk,  Romit Chakraborty,  
 Chandrima Chakravarty,  Junhan Chen,  A. D. Chien,  K. D. Closser,  
 V. Cofer-Shabica,  L. Cunha,  S. Dasgupta,  Jia Deng,  M. de Wergifosse,  
 M. Diedenhofen,  Hainam Do,  S. Ehlert,  Po-Tung Fang,  S. Fatehi,  
 Qingguo Feng,  T. Friedhoff,  B. Ganoe,  J. Gayvert,  Qinghui Ge,  
 G. Gidofalvi,  M. Goldey,  J. Gomes,  C. Gonzalez-Espinoza,  S. Gulania,  
 A. Gunina,  J. A. Gyamfi,  M. W. D. Hanson-Heine,  P. H. P. Harbach,  
 A. W. Hauser,  M. F. Herbst,  M. Hernandez Vera,  M. Hodecker,  
 Z. C. Holden,  S. Houck,  Xunkun Huang,  Kerwin Hui,  B. C. Huynh,  
 K. Ikeda,  M. Ivanov,  Hyunjun Ji,  Zuxin Jin,  Hanjie Jiang,  B. Kaduk,  
 S. Kaehler,  R. Kang,  K. Khistyaev,  Jaehoon Kim,  Yongbin Kim,  
 P. Klunzinger,  Z. Koczor-Benda,  Joong Hoon Koh,  D. Kosenkov,  
 Saikiran Kotaru,  L. Koulias,  T. Kowalczyk,  C. M. Krauter,  K. Kue,  
 A. Kunitsa,  T. Kus,  A. Landau,  K. V. Lawler,  D. Lefrancois,  S. Lehtola,  
 Rain Li,  Shaozhi Li,  Yi-Pei Li,  Jiashu Liang,  M. Liebenthal,  
 Hung-Hsuan Lin,  You-Sheng Lin,  Fenglai Liu,  Kuan-Yu Liu,  
 M. Loipersberger,  A. Luenser,  C. Malbon,  A. Manjanath,  P. Manohar,  
 E. Mansoor,  S. F. Manzer,  Shan-Ping Mao,  A. V. Marenich,  T. Markovich,  
 S. Mason,  F. Matz,  S. A. Maurer,  P. F. McLaughlin,  M. F. S. J. Menger,  
 J.-M. Mewes,  S. A. Mewes,  P. Morgante,  Mohammad Mostafanejad,  
 J. W. Mullinax,  K. J. Oosterbaan,  G. Paran,  V. Parravicini,  
 Alexander C. Paul,  Suranjan K. Paul,  F. Pavosevic,  Zheng Pei,  S. Prager,  
 E. I. Proynov,  E. Ramos,  B. Rana,  A. E. Rask,  A. Rettig,  R. M. Richard,  
 F. Rob,  E. Rossomme,  T. Scheele,  M. Scheurer,  M. Schneider,  
 P. E. Schneider,  N. Sergueev,  S. M. Sharada,  Hengyuan Shen,  
 W. Skomorowski,  D. W. Small,  C. J. Stein,  Yingli Su,  Yu-Chuan Su,  
 E. J. Sundstrom,  Zhen Tao,  J. Thirman,  Hung-Yi Tsai,  T. Tsuchimochi,  
 N. M. Tubman,  C. Utku,  S. P. Veccham,  O. Vydrov,  J. Wenzel,  
 Jonathan Wong,  J. Witte,  A. Yamada,  Chou-Hsun Yang,  Kun Yao,  
 S. Yeganeh,  S. R. Yost,  A. Zech,  F. Zeller,  Igor Ying Zhang,  
 Xing Zhang,  Yu Zhang,  D. Zuev,  A. Aspuru-Guzik,  A. T. Bell,  
 N. A. Besley,  K. B. Bravaya,  B. R. Brooks,  D. Casanova,  Jeng-Da Chai,  
 Hsing-Ta Chen,  S. Coriani,  C. J. Cramer,  A. E. DePrince, III,  
 R. A. DiStasio Jr.,  A. Dreuw,  B. D. Dunietz,  T. R. Furlani,  
 W. A. Goddard III,  S. Grimme,  S. Hammes-Schiffer,  T. Head-Gordon,  
 W. J. Hehre,  Chao-Ping Hsu,  T.-C. Jagau,  Yousung Jung,  A. Klamt,  
 Jing Kong,  D. S. Lambrecht,  Xiangyuan Li,  WanZhen Liang,  N. J. Mayhall,  
 C. W. McCurdy,  J. B. Neaton,  T. Neudecker,  C. Ochsenfeld,  
 J. A. Parkhill,  R. Peverati,  V. A. Rassolov,  Haisheng Ren,  Yihan Shao,  
 L. V. Slipchenko,  R. P. Steele,  J. E. Subotnik,  A. J. W. Thom,  
 A. Tkatchenko,  D. G. Truhlar,  T. Van Voorhis,  Fan Wang,  
 T. A. Wesolowski,  K. B. Whaley,  H. L. Woodcock III,  P. M. Zimmerman,  
 S. Faraji,  P. M. W. Gill,  M. Head-Gordon,  J. M. Herbert,  A. I. Krylov

 Contributors to earlier versions of Q-Chem not listed above: 
 R. D. Adamson,  B. Austin,  R. Baer,  J. Baker,  G. J. O. Beran,  
 K. Brandhorst,  S. T. Brown,  E. F. C. Byrd,  Arup K. Chakraborty,  
 G. K. L. Chan,  Chun-Min Chang,  Yunqing Chen,  C.-L. Cheng,  
 Siu Hung Chien,  D. M. Chipman,  D. L. Crittenden,  H. Dachsel,  
 R. J. Doerksen,  A. D. Dutoi,  R. G. Edgar,  J. Fosso-Tande,  
 L. Fusti-Molnar,  D. Ghosh,  A. Ghysels,  A. Golubeva-Zadorozhnaya,  
 J. Gonthier,  M. S. Gordon,  S. R. Gwaltney,  G. Hawkins,  J. E. Herr,  
 A. Heyden,  S. Hirata,  E. G. Hohenstein,  G. Kedziora,  F. J. Keil,  
 C. Kelley,  Jihan Kim,  R. A. King,  R. Z. Khaliullin,  P. P. Korambath,  
 W. Kurlancheek,  A. Laurent,  A. M. Lee,  M. S. Lee,  S. V. Levchenko,  
 Ching Yeh Lin,  D. Liotard,  E. Livshits,  R. C. Lochan,  I. Lotan,  
 L. A. Martinez-Martinez,  P. E. Maslen,  N. Nair,  D. P. O'Neill,  
 D. Neuhauser,  E. Neuscamman,  C. M. Oana,  R. Olivares-Amaya,  R. Olson,  
 T. M. Perrine,  B. Peters,  P. A. Pieniazek,  A. Prociuk,  Y. M. Rhee,  
 J. Ritchie,  M. A. Rohrdanz,  E. Rosta,  N. J. Russ,  H. F. Schaefer III,  
 M. W. Schmidt,  N. E. Schultz,  S. Sharma,  N. Shenvi,  C. D. Sherrill,  
 A. C. Simmonett,  A. Sodt,  T. Stein,  D. Stuck,  K. S. Thanthiriwatte,  
 V. Vanovschi,  L. Vogt,  Tao Wang,  A. Warshel,  M. A. Watson,  
 C. F. Williams,  Q. Wu,  X. Xu,  Jun Yang,  W. Zhang,  Yan Zhao

   Please cite Q-Chem as follows:
  "Software for the frontiers of quantum chemistry:
   An overview of developments in the Q-Chem 5 package"
   J. Chem. Phys. 155, 084801 (2021)
   https://doi.org/10.1063/5.0055522 (open access)

 Q-Chem 6.0.1 for Intel X86 EM64T Linux

 Parts of Q-Chem use Armadillo 9.900.5 (Nocturnal Misbehaviour).
 http://arma.sourceforge.net/

 Q-Chem begins on Mon Nov 28 12:40:08 2022  

 Host: node8.as.kent.edu
0

     Scratch files written to /home/eholder/active_projects/fe@c60/c60/reproduce-attempt/anion-opt/opt//
 Processing $rem in /data/dunietz/eholder/qchem/config/preferences:
 Processing $rem in /home/eholder/.qchemrc:

 Checking the input file for inconsistencies... 	...done.

--------------------------------------------------------------
User input:
--------------------------------------------------------------
$molecule
read opt.txt
$end

$rem
jobtype = opt
exchange = wB97XD
correlation = none
basis = 6-31G*
iqmol_fchk = true
scf_convergence = 8
max_scf_cycles = 5000
mem_static = 6000
mem_total = 56000
$end


--------------------------------------------------------------
 Atom  12: (  0.2440989517,  3.3650127337,  1.1101962295)
         ->(  0.2440989519,  3.3650127346,  1.1101962352)
 Atom  19: ( -2.9254048422,  1.7634209403, -0.9715125057)
         ->( -2.9254048421,  1.7634209337, -0.9715125096)
 Atom  26: (  1.5038660116,  0.7015174885,  3.1397044521)
         ->(  1.5038660067,  0.7015174907,  3.1397044531)
 Atom  36: ( -0.9607623025,  2.9141395958,  1.7877944486)
         ->( -0.9607622999,  2.9141395970,  1.7877944543)
 Atom  41: ( -2.6457453270, -0.2621639207, -2.3542390525)
         ->( -2.6457453252, -0.2621639173, -2.3542390582)
 Atom  52: ( -0.5636793809,  2.0216496591,  2.8646706825)
         ->( -0.5636793780,  2.0216496656,  2.8646706834)
 Atom  50: (  0.8868927838,  1.9204613762,  2.8524356641)
         ->(  0.8868927786,  1.9204613838,  2.8524356650)
 ----------------------------------------------------------------
             Standard Nuclear Orientation (Angstroms)
    I     Atom           X                Y                Z
 ----------------------------------------------------------------
    1      C       3.4250443907    -0.9336751641    -0.1129221820
    2      C       3.5229072072     0.4490034452     0.0543188856
    3      C      -3.5229072073    -0.4490034449    -0.0543188823
    4      C      -3.4250443926     0.9336751634     0.1129221853
    5      C       0.6963880073     0.3696025948    -3.4632166053
    6      C      -0.6963683089     0.4667577890    -3.4514692453
    7      C       0.6963683115    -0.4667577868     3.4514692460
    8      C      -0.6963880078    -0.3696025932     3.4632166061
    9      C      -0.2440989519    -3.3650127346    -1.1101962352
   10      C      -0.2441028948    -3.5326658944     0.2758915559
   11      C       0.2441028951     3.5326658943    -0.2758915545
   12      C       0.2440989519     3.3650127346     1.1101962352
   13      C       2.9254114844    -1.4809411303    -1.3639150970
   14      C       2.9254048421    -1.7634209337     0.9715125096
   15      C       3.1251666422     1.3413482116    -1.0225467550
   16      C       3.1251599942     1.0588684081     1.3128808520
   17      C      -3.1251599938    -1.0588684091    -1.3128808506
   18      C      -3.1251666422    -1.3413482086     1.0225467556
   19      C      -2.9254048421     1.7634209337    -0.9715125096
   20      C      -2.9254114856     1.4809411335     1.3639150959
   21      C       1.3389934858    -0.8998282581    -3.1636828737
   22      C       1.5038831620     1.4298555960    -2.8818973361
   23      C      -1.5038660067    -0.7015174907    -3.1397044531
   24      C      -1.3389763416     1.6281663629    -2.8579189132
   25      C       1.3389763421    -1.6281663618     2.8579189142
   26      C       1.5038660067     0.7015174907     3.1397044531
   27      C      -1.5038831601    -1.4298555937     2.8818973380
   28      C      -1.3389934887     0.8998282550     3.1636828735
   29      C       0.9607622999    -2.9141395970    -1.7877944543
   30      C      -1.3859011376    -2.7504422297    -1.7680012456
   31      C       0.9607542509    -3.2563490457     1.0414533342
   32      C      -1.3859091903    -3.0926516745     1.0612465388
   33      C       1.3859091895     3.0926516754    -1.0612465408
   34      C      -0.9607542525     3.2563490462    -1.0414533336
   35      C       1.3859011370     2.7504422284     1.7680012422
   36      C      -0.9607622999     2.9141395970     1.7877944543
   37      C       2.5438330688    -0.6241759178    -2.3980111493
   38      C       2.5438200399    -1.1779123632     2.1800554817
   39      C       2.6457583603     0.8159003586    -2.2238275798
   40      C       2.6457453252     0.2621639173     2.3542390582
   41      C      -2.6457453252    -0.2621639173    -2.3542390582
   42      C      -2.6457583618    -0.8159003569     2.2238275786
   43      C      -2.5438200379     1.1779123674    -2.1800554806
   44      C      -2.5438330670     0.6241759167     2.3980111536
   45      C       0.5636793780    -2.0216496656    -2.8646706834
   46      C       0.8869074921     2.5451573412    -2.3122952321
   47      C      -0.8868927786    -1.9204613838    -2.8524356650
   48      C      -0.5636646767     2.6463456301    -2.3000602127
   49      C       0.5636646773    -2.6463456302     2.3000602121
   50      C       0.8868927786     1.9204613838     2.8524356650
   51      C      -0.8869074891    -2.5451573417     2.3122952314
   52      C      -0.5636793780     2.0216496656     2.8646706834
   53      C       2.1177235054    -2.6491530285    -1.0527936476
   54      C      -2.4823680987    -2.3282621523    -1.0139936366
   55      C       2.1177193991    -2.8237657719     0.3908331307
   56      C      -2.4823722097    -2.5028748910     0.4296331380
   57      C       2.4823722120     2.5028748908    -0.4296331385
   58      C      -2.1177194037     2.8237657727    -0.3908331297
   59      C       2.4823680997     2.3282621524     1.0139936337
   60      C      -2.1177235084     2.6491530298     1.0527936438
 ----------------------------------------------------------------
 Molecular Point Group                 Ci    NOp =  2
 Largest Abelian Subgroup              Ci    NOp =  2
 Nuclear Repulsion Energy =        8323.39222572 hartrees
 There are      181 alpha and      180 beta electrons
 Requested basis set is 6-31G(d)
 There are 240 shells and 900 basis functions

 Total QAlloc Memory Limit  56000 MB
 Mega-Array Size      5866 MB
 MEM_STATIC part      6000 MB

 -----------------------------------------------------------------------
                STARTING GEOMETRY OPTIMIZER USING LIBOPT3
                by Peter F. McLaughlin, Yu Zhang, Evgeny Epifanovsky
 -----------------------------------------------------------------------

              Initial Energy and Gradient Calculation
   -- Checking Topology for Ill-Behaving Coordinates --

 -------------------------------------------
   Coordinate       |  Removed | Additions 
 -------------------------------------------
	Bonds                     0          0
	Angles                    0          0
	Torsions                  0          0
	Co-Linear Type5s          0          0
	Co-Linear Type6s          0          0
 -------------------------------------------
     Done Checking Topology
 ----------------------------------------------------------------
             Standard Nuclear Orientation (Angstroms)
    I     Atom           X                Y                Z
 ----------------------------------------------------------------
    1      C       3.4202358717    -0.9526797873    -0.0990838779
    2      C       3.5251531456     0.4319707829     0.0461125624
    3      C      -3.5251531456    -0.4319707831    -0.0461125593
    4      C      -3.4202358735     0.9526797861     0.0990838809
    5      C       0.6969300685     0.3109427906    -3.4688664793
    6      C      -0.6953125639     0.4153218630    -3.4582480818
    7      C       0.6953125665    -0.4153218613     3.4582480823
    8      C      -0.6969300689    -0.3109427896     3.4688664799
    9      C      -0.2615348630    -3.3809660869    -1.0564556402
   10      C      -0.2618590953    -3.5265499365     0.3321235560
   11      C       0.2618590956     3.5265499359    -0.3321235548
   12      C       0.2615348631     3.3809660864     1.0564556401
   13      C       2.9173658192    -1.5172374454    -1.3410632307
   14      C       2.9168195196    -1.7625325362     0.9985621591
   15      C       3.1315203607     1.3090770145    -1.0446918363
   16      C       3.1309740555     1.0637819236     1.2949335540
   17      C      -3.1309740550    -1.0637819251    -1.2949335527
   18      C      -3.1315203606    -1.3090770119     1.0446918367
   19      C      -2.9168195195     1.7625325357    -0.9985621593
   20      C      -2.9173658202     1.5172374481     1.3410632295
   21      C       1.3332218955    -0.9568001593    -3.1493708273
   22      C       1.5099976711     1.3762062644    -2.9047284206
   23      C      -1.5085890784    -0.7437441917    -3.1276968170
   24      C      -1.3318133139     1.5892622315    -2.8830544080
   25      C       1.3318133144    -1.5892622310     2.8830544088
   26      C       1.5085890785     0.7437441912     3.1276968169
   27      C      -1.5099976692    -1.3762062625     2.9047284222
   28      C      -1.3332218984     0.9568001556     3.1493708270
   29      C       0.9453330365    -2.9470324474    -1.7415016520
   30      C      -1.4004648920    -2.7711635245    -1.7236106391
   31      C       0.9446712211    -3.2441945713     1.0928315305
   32      C      -1.4011267111    -3.0683256445     1.1107225393
   33      C       1.4011267104     3.0683256449    -1.1107225415
   34      C      -0.9446712226     3.2441945714    -1.0928315300
   35      C       1.4004648915     2.7711635226     1.7236106355
   36      C      -0.9453330364     2.9470324469     1.7415016519
   37      C       2.5397313308    -0.6751073723    -2.3885423452
   38      C       2.5386604284    -1.1559517736     2.1977530710
   39      C       2.6490039239     0.7670227249    -2.2373185182
   40      C       2.6479330153     0.2861783278     2.3489769048
   41      C      -2.6479330152    -0.2861783283    -2.3489769050
   42      C      -2.6490039252    -0.7670227238     2.2373185168
   43      C      -2.5386604263     1.1559517774    -2.1977530700
   44      C      -2.5397313289     0.6751073708     2.3885423493
   45      C       0.5523586163    -2.0697845687    -2.8323191444
   46      C       0.8988866825     2.5035355681    -2.3527542204
   47      C      -0.8976785325    -1.9610725324    -2.8212599538
   48      C      -0.5511504784     2.6122476116    -2.3416950289
   49      C       0.5511504791    -2.6122476122     2.3416950282
   50      C       0.8976785326     1.9610725319     2.8212599537
   51      C      -0.8988866795    -2.5035355691     2.3527542196
   52      C      -0.5523586163     2.0697845682     2.8323191442
   53      C       2.1038991016    -2.6762493966    -1.0111561784
   54      C      -2.4944958722    -2.3314989971    -0.9760849828
   55      C       2.1035614102    -2.8278766933     0.4350654277
   56      C      -2.4948335682    -2.4831262891     0.4701366196
   57      C       2.4948335706     2.4831262884    -0.4701366202
   58      C      -2.1035614148     2.8278766936    -0.4350654268
   59      C       2.4944958732     2.3314989967     0.9760849798
   60      C      -2.1038991045     2.6762493974     1.0111561745
 ----------------------------------------------------------------
 Molecular Point Group                 Ci    NOp =  2
 Largest Abelian Subgroup              Ci    NOp =  2
 Nuclear Repulsion Energy =        8323.39222524 hartrees
 There are      181 alpha and      180 beta electrons
 Requested basis set is 6-31G(d)
 There are 240 shells and 900 basis functions
 A cutoff of  1.0D-12 yielded  17520 shell pairs
 There are    275070 function pairs
 Smallest overlap matrix eigenvalue = 3.29E-04

 Scale SEOQF with 1.000000e-01/1.000000e-01/1.000000e-01

 Standard Electronic Orientation quadrupole field applied
 Guess from superposition of atomic densities
 Warning:  Energy on first SCF cycle will be non-variational
 SAD guess density has 360.000001 electrons

 -----------------------------------------------------------------------
  General SCF calculation program by
  Eric Jon Sundstrom, Paul Horn, Yuezhi Mao, Dmitri Zuev, Alec White,
  David Stuck, Shaama M.S., Shane Yost, Joonho Lee, David Small,
  Daniel Levine, Susi Lehtola, Hugh Burton, Evgeny Epifanovsky,
  Bang C. Huynh
 -----------------------------------------------------------------------
 Exchange:     0.2220 Hartree-Fock + 1.0000 wB97X-D + LR-HF
 Correlation:  1.0000 wB97X-D
 Using SG-2 standard quadrature grid
 Dispersion:   Grimme D
 using 8 threads for integral computing
 -------------------------------------------------------
 OpenMP Integral computing Module                
 Release: version 1.0, May 2013, Q-Chem Inc. Pittsburgh 
 -------------------------------------------------------
 A unrestricted SCF calculation will be
 performed using DIIS
 SCF converges when DIIS error is below 1.0e-08
 ---------------------------------------
  Cycle       Energy         DIIS error
 ---------------------------------------
    1   -2312.1822912366      1.44e-02  
    2   -2285.2903899923      6.28e-04  
    3   -2285.4368973910      3.99e-04  
    4   -2285.4875738525      1.40e-04  
    5   -2285.4943054186      3.78e-05  
    6   -2285.4948164005      2.13e-05  
    7   -2285.4950496654      3.11e-06  
    8   -2285.4950661963      2.45e-06  
    9   -2285.4950722438      8.36e-07  
   10   -2285.4950740955      6.78e-07  
   11   -2285.4950746029      2.44e-07  
   12   -2285.4950748136      1.13e-07  
   13   -2285.4950748620      5.01e-08  
   14   -2285.4950748674      2.64e-08  
   15   -2285.4950748701      1.79e-08  
   16   -2285.4950748713      1.13e-08  
   17   -2285.4950748725      8.88e-09  Convergence criterion met
 ---------------------------------------
 SCF time:   CPU 3249.96s  wall 515.00s 
<S^2> =          0.766762620
 SCF   energy in the final basis set =    -2285.4950748725
 Total energy in the final basis set =    -2285.4950748725

 --------------------------------------------------------------
             Orbital Energies (a.u.) and Symmetries
 --------------------------------------------------------------

 Alpha MOs, Unrestricted
 -- Occupied --                  
-10.235 -10.235 -10.234 -10.234 -10.233 -10.233 -10.233 -10.233
  1 Au    1 Ag    2 Ag    2 Au    3 Ag    3 Au    4 Ag    4 Au                 
-10.232 -10.232 -10.232 -10.232 -10.232 -10.232 -10.232 -10.232
  5 Ag    5 Au    6 Ag    6 Au    7 Au    7 Ag    8 Au    8 Ag                 
-10.231 -10.231 -10.231 -10.231 -10.230 -10.230 -10.230 -10.230
  9 Ag    9 Au   10 Ag   10 Au   11 Au   11 Ag   12 Au   12 Ag                 
-10.230 -10.230 -10.230 -10.230 -10.230 -10.230 -10.229 -10.229
 13 Au   13 Ag   14 Au   14 Ag   15 Au   15 Ag   16 Ag   16 Au                 
-10.229 -10.229 -10.229 -10.229 -10.228 -10.228 -10.228 -10.228
 17 Au   17 Ag   18 Au   18 Ag   19 Au   19 Ag   20 Ag   20 Au                 
-10.227 -10.227 -10.227 -10.227 -10.227 -10.227 -10.227 -10.227
 21 Au   21 Ag   22 Ag   22 Au   23 Au   23 Ag   24 Ag   24 Au                 
-10.225 -10.225 -10.225 -10.225 -10.225 -10.225 -10.224 -10.224
 25 Ag   25 Au   26 Au   26 Ag   27 Au   27 Ag   28 Ag   28 Au                 
-10.224 -10.224 -10.223 -10.223  -0.956  -0.938  -0.935  -0.935
 29 Ag   29 Au   30 Au   30 Ag   31 Ag   31 Au   32 Au   33 Au                 
 -0.899  -0.898  -0.898  -0.897  -0.897  -0.858  -0.858  -0.856
 32 Ag   33 Ag   34 Ag   35 Ag   36 Ag   34 Au   35 Au   36 Au                 
 -0.825  -0.825  -0.824  -0.824  -0.774  -0.774  -0.773  -0.773
 37 Au   38 Au   39 Au   40 Au   37 Ag   38 Ag   39 Ag   40 Ag                 
 -0.773  -0.756  -0.756  -0.756  -0.756  -0.699  -0.699  -0.698
 41 Ag   42 Ag   43 Ag   44 Ag   45 Ag   41 Au   42 Au   43 Au                 
 -0.697  -0.696  -0.684  -0.683  -0.683  -0.639  -0.639  -0.639
 44 Au   45 Au   46 Au   47 Au   48 Au   49 Au   50 Au   51 Au                 
 -0.602  -0.601  -0.601  -0.600  -0.600  -0.598  -0.598  -0.598
 46 Ag   47 Ag   48 Ag   49 Ag   50 Ag   51 Ag   52 Ag   53 Ag                 
 -0.571  -0.530  -0.529  -0.528  -0.528  -0.504  -0.504  -0.503
 54 Ag   55 Ag   56 Ag   57 Ag   58 Ag   52 Au   53 Au   54 Au                 
 -0.503  -0.503  -0.487  -0.485  -0.485  -0.461  -0.460  -0.459
 55 Au   56 Au   57 Au   58 Au   59 Au   59 Ag   60 Au   61 Au                 
 -0.459  -0.438  -0.436  -0.436  -0.434  -0.433  -0.433  -0.433
 62 Au   63 Au   64 Au   65 Au   66 Au   67 Au   68 Au   69 Au                 
 -0.413  -0.413  -0.412  -0.411  -0.410  -0.398  -0.398  -0.398
 60 Ag   61 Ag   62 Ag   63 Ag   64 Ag   65 Ag   66 Ag   67 Ag                 
 -0.398  -0.390  -0.390  -0.389  -0.388  -0.388  -0.387  -0.386
 68 Ag   69 Ag   70 Ag   71 Ag   72 Ag   73 Ag   74 Ag   75 Ag                 
 -0.386  -0.366  -0.366  -0.366  -0.365  -0.330  -0.329  -0.328
 76 Ag   70 Au   71 Au   72 Au   73 Au   74 Au   75 Au   76 Au                 
 -0.323  -0.322  -0.321  -0.321  -0.320  -0.311  -0.310  -0.310
 77 Ag   78 Ag   79 Ag   80 Ag   81 Ag   77 Au   78 Au   79 Au                 
 -0.310  -0.309  -0.309  -0.308  -0.308  -0.307  -0.233  -0.233
 80 Au   81 Au   82 Au   83 Au   84 Au   85 Au   82 Ag   83 Ag                 
 -0.232  -0.232  -0.232  -0.229  -0.229  -0.225  -0.225  -0.176
 84 Ag   85 Ag   86 Ag   87 Ag   88 Ag   89 Ag   90 Ag   86 Au                 
 -0.175  -0.170  -0.170  -0.167  -0.071
 87 Au   88 Au   89 Au   90 Au   91 Au                                         
 -- Virtual --                   
  0.048   0.048   0.081   0.081   0.099   0.141   0.142   0.143
 92 Au   93 Au   91 Ag   92 Ag   93 Ag   94 Au   94 Ag   95 Au                 
  0.144   0.145   0.146   0.148   0.149   0.214   0.215   0.217
 95 Ag   96 Ag   96 Au   97 Ag   98 Ag   97 Au   98 Au   99 Au                 
  0.218   0.219   0.238   0.238   0.238   0.238   0.263   0.263
100 Au  101 Au   99 Ag  100 Ag  101 Ag  102 Ag  102 Au  103 Au                 
  0.264   0.264   0.285   0.287   0.288   0.318   0.318   0.318
104 Au  105 Au  103 Ag  104 Ag  105 Ag  106 Au  107 Au  108 Au                 
  0.344   0.345   0.345   0.346   0.346   0.375   0.375   0.377
106 Ag  107 Ag  108 Ag  109 Ag  110 Ag  111 Ag  112 Ag  113 Ag                 
  0.380   0.380   0.381   0.390   0.391   0.391   0.392   0.423
109 Au  110 Au  111 Au  112 Au  113 Au  114 Au  115 Au  114 Ag                 
  0.424   0.426   0.426   0.426   0.446   0.447   0.448   0.448
115 Ag  116 Ag  117 Ag  118 Ag  119 Ag  120 Ag  121 Ag  122 Ag                 
  0.483   0.484   0.485   0.485   0.485   0.506   0.506   0.506
116 Au  117 Au  118 Au  119 Au  120 Au  121 Au  122 Au  123 Au                 
  0.523   0.523   0.523   0.558   0.559   0.559   0.582   0.582
124 Au  125 Au  126 Au  123 Ag  124 Ag  125 Ag  127 Au  128 Au                 
  0.582   0.582   0.583   0.641   0.641   0.642   0.642   0.653
129 Au  130 Au  131 Au  126 Ag  127 Ag  128 Ag  129 Ag  130 Ag                 
  0.661   0.662   0.662   0.662   0.665   0.665   0.666   0.666
132 Au  133 Au  134 Au  135 Au  131 Ag  132 Ag  133 Ag  134 Ag                 
  0.668   0.669   0.669   0.670   0.671   0.675   0.677   0.677
135 Ag  136 Ag  137 Ag  138 Ag  139 Ag  136 Au  137 Au  138 Au                 
  0.698   0.699   0.700   0.701   0.701   0.701   0.701   0.701
140 Ag  141 Ag  142 Ag  143 Ag  144 Ag  139 Au  145 Ag  146 Ag                 
  0.702   0.703   0.703   0.724   0.724   0.724   0.724   0.726
147 Ag  140 Au  141 Au  142 Au  143 Au  144 Au  145 Au  148 Ag                 
  0.727   0.727   0.727   0.730   0.731   0.732   0.741   0.741
149 Ag  150 Ag  151 Ag  146 Au  147 Au  148 Au  149 Au  150 Au                 
  0.741   0.741   0.741   0.742   0.747   0.748   0.749   0.749
151 Au  152 Au  153 Au  152 Ag  153 Ag  154 Ag  155 Ag  156 Ag                 
  0.749   0.750   0.750   0.750   0.750   0.753   0.754   0.754
157 Ag  158 Ag  159 Ag  160 Ag  161 Ag  154 Au  155 Au  156 Au                 
  0.767   0.767   0.768   0.769   0.770   0.771   0.772   0.772
157 Au  158 Au  159 Au  160 Au  161 Au  162 Au  163 Au  164 Au                 
  0.775   0.775   0.776   0.777   0.778   0.816   0.816   0.817
162 Ag  163 Ag  164 Ag  165 Ag  166 Ag  165 Au  166 Au  167 Au                 
  0.817   0.818   0.818   0.819   0.819   0.820   0.821   0.831
168 Au  169 Au  167 Ag  168 Ag  169 Ag  170 Ag  171 Ag  172 Ag                 
  0.831   0.832   0.844   0.844   0.844   0.844   0.845   0.845
173 Ag  174 Ag  170 Au  171 Au  172 Au  173 Au  175 Ag  176 Ag                 
  0.846   0.846   0.855   0.855   0.855   0.855   0.856   0.856
177 Ag  178 Ag  174 Au  175 Au  176 Au  177 Au  178 Au  179 Ag                 
  0.858   0.858   0.860   0.861   0.861   0.861   0.878   0.879
180 Ag  181 Ag  179 Au  180 Au  181 Au  182 Au  182 Ag  183 Ag                 
  0.879   0.880   0.880   0.880   0.889   0.889   0.889   0.897
184 Ag  183 Au  184 Au  185 Au  186 Au  187 Au  188 Au  189 Au                 
  0.898   0.899   0.899   0.905   0.906   0.907   0.907   0.909
190 Au  191 Au  192 Au  185 Ag  186 Ag  187 Ag  188 Ag  193 Au                 
  0.922   0.924   0.925   0.944   0.944   0.945   0.946   0.946
189 Ag  190 Ag  191 Ag  192 Ag  193 Ag  194 Ag  195 Ag  196 Ag                 
  0.949   0.950   0.951   0.964   0.964   0.964   0.965   0.979
194 Au  195 Au  196 Au  197 Au  198 Au  199 Au  200 Au  197 Ag                 
  0.979   0.979   0.981   0.981   0.999   0.999   1.000   1.000
198 Ag  199 Ag  200 Ag  201 Ag  201 Au  202 Au  203 Au  204 Au                 
  1.001   1.001   1.002   1.002   1.002   1.006   1.006   1.007
205 Au  202 Ag  203 Ag  204 Ag  205 Ag  206 Ag  207 Ag  208 Ag                 
  1.007   1.007   1.024   1.024   1.025   1.056   1.057   1.057
209 Ag  210 Ag  206 Au  207 Au  208 Au  209 Au  210 Au  211 Au                 
  1.095   1.095   1.095   1.096   1.110   1.110   1.110   1.110
212 Au  213 Au  214 Au  215 Au  211 Ag  212 Ag  213 Ag  214 Ag                 
  1.110   1.132   1.132   1.132   1.194   1.194   1.196   1.199
215 Ag  216 Au  217 Au  218 Au  216 Ag  217 Ag  218 Ag  219 Au                 
  1.199   1.200   1.200   1.201   1.201   1.219   1.220   1.220
220 Au  221 Au  219 Ag  220 Ag  221 Ag  222 Ag  223 Ag  224 Ag                 
  1.220   1.228   1.229   1.230   1.230   1.230   1.237   1.241
225 Ag  226 Ag  227 Ag  228 Ag  229 Ag  230 Ag  231 Ag  222 Au                 
  1.241   1.242   1.242   1.242   1.255   1.256   1.257   1.257
223 Au  224 Au  225 Au  226 Au  227 Au  228 Au  229 Au  230 Au                 
  1.266   1.266   1.267   1.267   1.268   1.323   1.323   1.323
231 Au  232 Au  233 Au  234 Au  235 Au  232 Ag  233 Ag  234 Ag                 
  1.326   1.326   1.326   1.330   1.330   1.331   1.331   1.332
236 Au  237 Au  238 Au  235 Ag  236 Ag  237 Ag  238 Ag  239 Ag                 
  1.336   1.337   1.337   1.338   1.351   1.351   1.351   1.356
240 Ag  241 Ag  242 Ag  243 Ag  239 Au  240 Au  241 Au  244 Ag                 
  1.356   1.357   1.380   1.380   1.380   1.381   1.429   1.429
245 Ag  246 Ag  247 Ag  248 Ag  249 Ag  250 Ag  242 Au  243 Au                 
  1.430   1.430   1.431   1.432   1.433   1.433   1.433   1.444
244 Au  245 Au  246 Au  247 Au  248 Au  249 Au  250 Au  251 Au                 
  1.445   1.445   1.445   1.445   1.498   1.498   1.499   1.500
252 Au  253 Au  254 Au  255 Au  256 Au  257 Au  258 Au  259 Au                 
  1.500   1.549   1.549   1.550   1.551   1.551   1.560   1.561
260 Au  251 Ag  252 Ag  253 Ag  254 Ag  255 Ag  256 Ag  257 Ag                 
  1.561   1.571   1.572   1.572   1.637   1.637   1.638   1.638
258 Ag  259 Ag  260 Ag  261 Ag  262 Ag  261 Au  263 Ag  264 Ag                 
  1.638   1.638   1.638   1.646   1.646   1.647   1.648   1.648
262 Au  263 Au  265 Ag  266 Ag  267 Ag  268 Ag  269 Ag  270 Ag                 
  1.696   1.697   1.697   1.712   1.716   1.716   1.717   1.718
264 Au  265 Au  266 Au  267 Au  271 Ag  272 Ag  273 Ag  274 Ag                 
  1.719   1.719   1.720   1.720   1.752   1.753   1.754   1.754
268 Au  269 Au  270 Au  271 Au  272 Au  273 Au  274 Au  275 Au                 
  1.754   1.809   1.810   1.810   1.837   1.839   1.839   1.847
276 Au  275 Ag  276 Ag  277 Ag  277 Au  278 Au  279 Au  280 Au                 
  1.848   1.848   1.848   1.876   1.877   1.878   1.891   1.893
281 Au  282 Au  283 Au  284 Au  285 Au  286 Au  278 Ag  279 Ag                 
  1.893   1.894   1.894   1.894   1.895   1.896   1.896   1.897
280 Ag  281 Ag  282 Ag  283 Ag  284 Ag  285 Ag  286 Ag  287 Ag                 
  1.918   1.920   1.920   1.920   1.920   1.920   1.921   1.930
287 Au  288 Ag  288 Au  289 Ag  289 Au  290 Ag  291 Ag  292 Ag                 
  1.931   1.931   1.932   1.932   1.947   1.947   1.948   1.948
293 Ag  294 Ag  295 Ag  296 Ag  290 Au  291 Au  292 Au  293 Au                 
  1.949   1.987   1.987   1.988   1.989   1.989   1.989   1.990
294 Au  297 Ag  298 Ag  299 Ag  300 Ag  295 Au  296 Au  301 Ag                 
  1.990   1.991   2.014   2.014   2.015   2.057   2.057   2.058
297 Au  298 Au  299 Au  300 Au  301 Au  302 Au  303 Au  304 Au                 
  2.058   2.081   2.082   2.083   2.083   2.083   2.109   2.109
305 Au  302 Ag  303 Ag  304 Ag  305 Ag  306 Ag  306 Au  307 Au                 
  2.109   2.137   2.137   2.137   2.155   2.155   2.156   2.165
308 Au  309 Au  310 Au  311 Au  307 Ag  308 Ag  309 Ag  310 Ag                 
  2.165   2.165   2.165   2.166   2.179   2.179   2.180   2.180
311 Ag  312 Ag  313 Ag  314 Ag  312 Au  313 Au  314 Au  315 Au                 
  2.180   2.181   2.181   2.181   2.181   2.185   2.185   2.185
316 Au  315 Ag  316 Ag  317 Ag  318 Ag  317 Au  318 Au  319 Au                 
  2.185   2.185   2.185   2.187   2.202   2.202   2.204   2.219
320 Au  321 Au  322 Au  323 Au  319 Ag  320 Ag  321 Ag  322 Ag                 
  2.219   2.219   2.220   2.222   2.223   2.224   2.224   2.224
323 Ag  324 Ag  325 Ag  326 Ag  327 Ag  328 Ag  329 Ag  330 Ag                 
  2.265   2.265   2.266   2.266   2.267   2.267   2.267   2.267
324 Au  325 Au  326 Au  327 Au  328 Au  329 Au  330 Au  331 Au                 
  2.321   2.321   2.321   2.364   2.365   2.365   2.365   2.365
331 Ag  332 Ag  333 Ag  332 Au  333 Au  334 Au  335 Au  336 Au                 
  2.409   2.409   2.409   2.409   2.410   2.410   2.410   2.411
334 Ag  335 Ag  336 Ag  337 Ag  338 Ag  337 Au  338 Au  339 Au                 
  2.453   2.453   2.454   2.454   2.454   2.482   2.483   2.483
339 Ag  340 Ag  341 Ag  342 Ag  343 Ag  344 Ag  345 Ag  346 Ag                 
  2.483   2.488   2.488   2.488   2.489   2.501   2.501   2.503
347 Ag  340 Au  341 Au  342 Au  343 Au  348 Ag  349 Ag  350 Ag                 
  2.503   2.503   2.504   2.504   2.505   2.555   2.555   2.555
344 Au  345 Au  346 Au  347 Au  348 Au  349 Au  350 Au  351 Au                 
  2.556   2.556   2.623   2.623   2.624   2.631   2.631   2.631
352 Au  353 Au  354 Au  355 Au  356 Au  351 Ag  352 Ag  353 Ag                 
  2.632   2.639   2.640   2.641   2.641   2.645   2.646   2.646
354 Ag  357 Au  358 Au  359 Au  360 Au  355 Ag  356 Ag  357 Ag                 
  2.671   2.671   2.673   2.675   2.676   2.676   2.677   2.677
361 Au  362 Au  363 Au  358 Ag  359 Ag  360 Ag  361 Ag  362 Ag                 
  2.712   2.713   2.713   2.745   2.745   2.746   2.779   2.779
364 Au  365 Au  366 Au  363 Ag  364 Ag  365 Ag  366 Ag  367 Ag                 
  2.780   2.781   2.781   2.786   2.786   2.786   2.786   2.786
368 Ag  369 Ag  370 Ag  367 Au  368 Au  369 Au  370 Au  371 Au                 
  2.810   2.810   2.810   2.822   2.822   2.823   2.823   2.824
371 Ag  372 Ag  373 Ag  374 Ag  375 Ag  376 Ag  377 Ag  378 Ag                 
  2.835   2.835   2.836   2.856   2.856   2.856   2.856   2.857
372 Au  373 Au  374 Au  375 Au  376 Au  377 Au  378 Au  379 Au                 
  2.901   2.901   2.901   2.901   2.907   2.907   2.907   2.908
380 Au  381 Au  382 Au  383 Au  379 Ag  380 Ag  381 Ag  382 Ag                 
  2.926   2.926   2.927   2.945   2.945   2.945   2.946   2.996
383 Ag  384 Ag  385 Ag  386 Ag  387 Ag  388 Ag  389 Ag  384 Au                 
  2.996   2.997   2.997   2.997   3.023   3.023   3.024   3.035
385 Au  386 Au  387 Au  388 Au  389 Au  390 Au  391 Au  390 Ag                 
  3.035   3.036   3.037   3.037   3.044   3.044   3.045   3.054
391 Ag  392 Ag  393 Ag  394 Ag  395 Ag  396 Ag  397 Ag  392 Au                 
  3.055   3.055   3.055   3.055   3.072   3.074   3.074   3.106
393 Au  394 Au  395 Au  396 Au  398 Ag  399 Ag  400 Ag  397 Au                 
  3.107   3.108   3.108   3.137   3.157   3.157   3.158   3.158
398 Au  399 Au  400 Au  401 Au  402 Au  403 Au  404 Au  405 Au                 
  3.158   3.197   3.197   3.197   3.199   3.206   3.206   3.206
406 Au  401 Ag  402 Ag  403 Ag  404 Ag  405 Ag  406 Ag  407 Ag                 
  3.281   3.282   3.283   3.283   3.312   3.313   3.313   3.314
407 Au  408 Au  409 Au  410 Au  408 Ag  409 Ag  410 Ag  411 Ag                 
  3.405   3.406   3.407   3.463   3.464   3.465   3.466   3.466
412 Ag  413 Ag  414 Ag  411 Au  412 Au  413 Au  414 Au  415 Au                 
  3.584   3.585   3.587   3.587   3.674   3.677   3.677   3.727
416 Au  417 Au  418 Au  419 Au  415 Ag  416 Ag  417 Ag  418 Ag                 
  3.729   3.730   3.822   4.238   4.247   4.250   4.250   4.269
419 Ag  420 Ag  420 Au  421 Ag  421 Au  422 Au  423 Au  422 Ag                 
  4.270   4.271   4.272   4.272   4.317   4.318   4.319   4.347
423 Ag  424 Ag  425 Ag  426 Ag  424 Au  425 Au  426 Au  427 Au                 
  4.347   4.347   4.348   4.412   4.412   4.413   4.414   4.414
428 Au  429 Au  430 Au  427 Ag  428 Ag  429 Ag  430 Ag  431 Ag                 
  4.464   4.464   4.464   4.464   4.547   4.547   4.550   4.594
432 Ag  433 Ag  434 Ag  435 Ag  431 Au  432 Au  433 Au  434 Au                 
  4.594   4.594   4.595   4.596   4.712   4.712   4.713   4.784
435 Au  436 Au  437 Au  438 Au  439 Au  440 Au  441 Au  436 Ag                 
  4.784   4.784   4.863   4.863   4.864   4.865   4.866   5.025
437 Ag  438 Ag  439 Ag  440 Ag  441 Ag  442 Ag  443 Ag  444 Ag                 
  5.026   5.026   5.028   5.124   5.124   5.125   5.125   5.125
445 Ag  446 Ag  447 Ag  442 Au  443 Au  444 Au  445 Au  446 Au                 
  5.328   5.330   5.331   5.331   5.478   5.480   5.481
447 Au  448 Au  449 Au  450 Au  448 Ag  449 Ag  450 Ag                         

 Beta MOs, Unrestricted
 -- Occupied --                  
-10.235 -10.235 -10.234 -10.234 -10.233 -10.233 -10.233 -10.233
  1 Au    1 Ag    2 Ag    2 Au    3 Ag    3 Au    4 Au    4 Ag                 
-10.232 -10.232 -10.232 -10.232 -10.232 -10.232 -10.232 -10.232
  5 Ag    5 Au    6 Au    6 Ag    7 Ag    7 Au    8 Au    8 Ag                 
-10.231 -10.231 -10.231 -10.231 -10.230 -10.230 -10.230 -10.230
  9 Au    9 Ag   10 Ag   10 Au   11 Au   11 Ag   12 Au   12 Ag                 
-10.230 -10.230 -10.230 -10.230 -10.229 -10.229 -10.229 -10.229
 13 Ag   13 Au   14 Au   14 Ag   15 Au   15 Ag   16 Ag   16 Au                 
-10.229 -10.229 -10.229 -10.229 -10.228 -10.228 -10.228 -10.228
 17 Ag   17 Au   18 Au   18 Ag   19 Au   19 Ag   20 Ag   20 Au                 
-10.227 -10.227 -10.227 -10.227 -10.227 -10.227 -10.226 -10.226
 21 Au   21 Ag   22 Ag   22 Au   23 Ag   23 Au   24 Ag   24 Au                 
-10.225 -10.225 -10.225 -10.225 -10.225 -10.225 -10.223 -10.223
 25 Ag   25 Au   26 Ag   26 Au   27 Au   27 Ag   28 Au   28 Ag                 
-10.223 -10.223 -10.222 -10.222  -0.955  -0.937  -0.934  -0.934
 29 Au   29 Ag   30 Ag   30 Au   31 Ag   31 Au   32 Au   33 Au                 
 -0.898  -0.898  -0.897  -0.895  -0.895  -0.858  -0.856  -0.854
 32 Ag   33 Ag   34 Ag   35 Ag   36 Ag   34 Au   35 Au   36 Au                 
 -0.824  -0.824  -0.824  -0.824  -0.773  -0.773  -0.772  -0.772
 37 Au   38 Au   39 Au   40 Au   37 Ag   38 Ag   39 Ag   40 Ag                 
 -0.771  -0.755  -0.755  -0.755  -0.754  -0.698  -0.698  -0.698
 41 Ag   42 Ag   43 Ag   44 Ag   45 Ag   41 Au   42 Au   43 Au                 
 -0.696  -0.695  -0.683  -0.683  -0.680  -0.639  -0.638  -0.638
 44 Au   45 Au   46 Au   47 Au   48 Au   49 Au   50 Au   51 Au                 
 -0.601  -0.601  -0.600  -0.600  -0.599  -0.597  -0.596  -0.596
 46 Ag   47 Ag   48 Ag   49 Ag   50 Ag   51 Ag   52 Ag   53 Ag                 
 -0.570  -0.529  -0.528  -0.528  -0.527  -0.503  -0.503  -0.502
 54 Ag   55 Ag   56 Ag   57 Ag   58 Ag   52 Au   53 Au   54 Au                 
 -0.502  -0.501  -0.486  -0.485  -0.485  -0.459  -0.459  -0.459
 55 Au   56 Au   57 Au   58 Au   59 Au   60 Au   61 Au   62 Au                 
 -0.458  -0.437  -0.433  -0.433  -0.433  -0.432  -0.432  -0.432
 59 Ag   63 Au   64 Au   65 Au   66 Au   67 Au   68 Au   69 Au                 
 -0.412  -0.412  -0.411  -0.410  -0.410  -0.397  -0.397  -0.397
 60 Ag   61 Ag   62 Ag   63 Ag   64 Ag   65 Ag   66 Ag   67 Ag                 
 -0.397  -0.388  -0.388  -0.387  -0.386  -0.386  -0.385  -0.385
 68 Ag   69 Ag   70 Ag   71 Ag   72 Ag   73 Ag   74 Ag   75 Ag                 
 -0.384  -0.365  -0.365  -0.365  -0.365  -0.327  -0.325  -0.323
 76 Ag   70 Au   71 Au   72 Au   73 Au   74 Au   75 Au   76 Au                 
 -0.323  -0.322  -0.320  -0.320  -0.319  -0.310  -0.310  -0.309
 77 Ag   78 Ag   79 Ag   80 Ag   81 Ag   77 Au   78 Au   79 Au                 
 -0.307  -0.307  -0.306  -0.306  -0.306  -0.305  -0.230  -0.230
 80 Au   81 Au   82 Au   83 Au   84 Au   85 Au   82 Ag   83 Ag                 
 -0.228  -0.227  -0.224  -0.224  -0.223  -0.221  -0.220  -0.171
 84 Ag   85 Ag   86 Ag   87 Ag   88 Ag   89 Ag   90 Ag   86 Au                 
 -0.171  -0.170  -0.167  -0.166
 87 Au   88 Au   89 Au   90 Au                                                 
 -- Virtual --                   
  0.049   0.049   0.055   0.100   0.101   0.102   0.146   0.146
 91 Au   92 Au   93 Au   91 Ag   92 Ag   93 Ag   94 Au   95 Au                 
  0.147   0.147   0.149   0.149   0.152   0.152   0.220   0.220
 96 Au   94 Ag   95 Ag   96 Ag   97 Ag   98 Ag   97 Au   98 Au                 
  0.221   0.222   0.222   0.240   0.240   0.241   0.244   0.263
 99 Au  100 Au  101 Au   99 Ag  100 Ag  101 Ag  102 Ag  102 Au                 
  0.266   0.267   0.268   0.287   0.290   0.292   0.318   0.318
103 Au  104 Au  105 Au  103 Ag  104 Ag  105 Ag  106 Au  107 Au                 
  0.319   0.345   0.345   0.346   0.347   0.347   0.376   0.376
108 Au  106 Ag  107 Ag  108 Ag  109 Ag  110 Ag  111 Ag  112 Ag                 
  0.378   0.381   0.381   0.382   0.392   0.392   0.392   0.392
113 Ag  109 Au  110 Au  111 Au  112 Au  113 Au  114 Au  115 Au                 
  0.424   0.425   0.426   0.427   0.427   0.448   0.448   0.449
114 Ag  115 Ag  116 Ag  117 Ag  118 Ag  119 Ag  120 Ag  121 Ag                 
  0.449   0.483   0.484   0.485   0.486   0.486   0.506   0.506
122 Ag  116 Au  117 Au  118 Au  119 Au  120 Au  121 Au  122 Au                 
  0.508   0.523   0.524   0.524   0.559   0.559   0.560   0.583
123 Au  124 Au  125 Au  126 Au  123 Ag  124 Ag  125 Ag  127 Au                 
  0.583   0.583   0.584   0.584   0.642   0.642   0.642   0.642
128 Au  129 Au  130 Au  131 Au  126 Ag  127 Ag  128 Ag  129 Ag                 
  0.654   0.662   0.663   0.663   0.664   0.666   0.666   0.666
130 Ag  132 Au  133 Au  134 Au  135 Au  131 Ag  132 Ag  133 Ag                 
  0.667   0.669   0.670   0.670   0.672   0.673   0.675   0.678
134 Ag  135 Ag  136 Ag  137 Ag  138 Ag  139 Ag  136 Au  137 Au                 
  0.678   0.699   0.699   0.701   0.701   0.701   0.702   0.702
138 Au  140 Ag  141 Ag  142 Ag  143 Ag  139 Au  144 Ag  145 Ag                 
  0.703   0.703   0.704   0.704   0.725   0.725   0.725   0.725
146 Ag  147 Ag  140 Au  141 Au  142 Au  143 Au  144 Au  145 Au                 
  0.727   0.727   0.728   0.729   0.730   0.731   0.733   0.742
148 Ag  149 Ag  150 Ag  151 Ag  146 Au  147 Au  148 Au  149 Au                 
  0.742   0.742   0.742   0.742   0.742   0.747   0.748   0.750
150 Au  151 Au  152 Ag  152 Au  153 Au  153 Ag  154 Ag  155 Ag                 
  0.750   0.750   0.751   0.751   0.751   0.751   0.755   0.755
156 Ag  157 Ag  158 Ag  159 Ag  160 Ag  161 Ag  154 Au  155 Au                 
  0.755   0.767   0.768   0.769   0.770   0.771   0.773   0.773
156 Au  157 Au  158 Au  159 Au  160 Au  161 Au  162 Au  163 Au                 
  0.773   0.776   0.776   0.777   0.778   0.779   0.816   0.816
164 Au  162 Ag  163 Ag  164 Ag  165 Ag  166 Ag  165 Au  166 Au                 
  0.817   0.818   0.818   0.819   0.820   0.820   0.822   0.822
167 Au  168 Au  167 Ag  168 Ag  169 Au  169 Ag  170 Ag  171 Ag                 
  0.832   0.833   0.833   0.844   0.845   0.845   0.845   0.846
172 Ag  173 Ag  174 Ag  170 Au  171 Au  172 Au  175 Ag  173 Au                 
  0.846   0.847   0.848   0.855   0.856   0.856   0.856   0.857
176 Ag  177 Ag  178 Ag  174 Au  175 Au  176 Au  179 Ag  177 Au                 
  0.857   0.859   0.859   0.861   0.861   0.862   0.862   0.879
178 Au  180 Ag  181 Ag  179 Au  180 Au  181 Au  182 Au  182 Ag                 
  0.880   0.880   0.881   0.881   0.881   0.890   0.890   0.890
183 Ag  183 Au  184 Au  185 Au  184 Ag  186 Au  187 Au  188 Au                 
  0.897   0.899   0.900   0.900   0.906   0.907   0.907   0.907
189 Au  190 Au  191 Au  192 Au  185 Ag  186 Ag  187 Ag  188 Ag                 
  0.910   0.923   0.925   0.926   0.945   0.945   0.946   0.946
193 Au  189 Ag  190 Ag  191 Ag  192 Ag  193 Ag  194 Ag  195 Ag                 
  0.947   0.950   0.951   0.952   0.965   0.965   0.965   0.965
196 Ag  194 Au  195 Au  196 Au  197 Au  198 Au  199 Au  200 Au                 
  0.980   0.980   0.980   0.981   0.982   0.999   0.999   1.000
197 Ag  198 Ag  199 Ag  200 Ag  201 Ag  201 Au  202 Au  203 Au                 
  1.001   1.002   1.002   1.002   1.003   1.003   1.007   1.007
204 Au  202 Ag  205 Au  203 Ag  204 Ag  205 Ag  206 Ag  207 Ag                 
  1.008   1.008   1.009   1.025   1.025   1.025   1.057   1.058
208 Ag  209 Ag  210 Ag  206 Au  207 Au  208 Au  209 Au  210 Au                 
  1.058   1.095   1.095   1.096   1.096   1.110   1.110   1.111
211 Au  212 Au  213 Au  214 Au  215 Au  211 Ag  212 Ag  213 Ag                 
  1.111   1.111   1.132   1.132   1.133   1.194   1.194   1.196
214 Ag  215 Ag  216 Au  217 Au  218 Au  216 Ag  217 Ag  218 Ag                 
  1.199   1.200   1.200   1.200   1.201   1.202   1.220   1.220
219 Au  220 Au  219 Ag  221 Au  220 Ag  221 Ag  222 Ag  223 Ag                 
  1.220   1.220   1.228   1.229   1.230   1.231   1.231   1.239
224 Ag  225 Ag  226 Ag  227 Ag  228 Ag  229 Ag  230 Ag  231 Ag                 
  1.241   1.241   1.242   1.242   1.242   1.255   1.256   1.257
222 Au  223 Au  224 Au  225 Au  226 Au  227 Au  228 Au  229 Au                 
  1.258   1.266   1.266   1.267   1.267   1.268   1.323   1.323
230 Au  231 Au  232 Au  233 Au  234 Au  235 Au  232 Ag  233 Ag                 
  1.324   1.326   1.326   1.326   1.330   1.331   1.331   1.332
234 Ag  236 Au  237 Au  238 Au  235 Ag  236 Ag  237 Ag  238 Ag                 
  1.332   1.337   1.337   1.338   1.338   1.351   1.351   1.353
239 Ag  240 Ag  241 Ag  242 Ag  243 Ag  239 Au  240 Au  241 Au                 
  1.357   1.357   1.357   1.380   1.380   1.381   1.382   1.429
244 Ag  245 Ag  246 Ag  247 Ag  248 Ag  249 Ag  250 Ag  242 Au                 
  1.430   1.430   1.431   1.431   1.432   1.433   1.433   1.433
243 Au  244 Au  245 Au  246 Au  247 Au  248 Au  249 Au  250 Au                 
  1.445   1.445   1.445   1.446   1.446   1.499   1.499   1.499
251 Au  252 Au  253 Au  254 Au  255 Au  256 Au  257 Au  258 Au                 
  1.501   1.502   1.549   1.550   1.550   1.551   1.552   1.560
259 Au  260 Au  251 Ag  252 Ag  253 Ag  254 Ag  255 Ag  256 Ag                 
  1.562   1.562   1.571   1.572   1.572   1.638   1.638   1.639
257 Ag  258 Ag  259 Ag  260 Ag  261 Ag  262 Ag  263 Ag  264 Ag                 
  1.639   1.639   1.639   1.639   1.647   1.647   1.648   1.648
265 Ag  261 Au  262 Au  263 Au  266 Ag  267 Ag  268 Ag  269 Ag                 
  1.649   1.697   1.697   1.697   1.712   1.717   1.717   1.717
270 Ag  264 Au  265 Au  266 Au  267 Au  271 Ag  272 Ag  273 Ag                 
  1.720   1.720   1.720   1.720   1.721   1.753   1.753   1.754
274 Ag  268 Au  269 Au  270 Au  271 Au  272 Au  273 Au  274 Au                 
  1.755   1.755   1.810   1.810   1.810   1.838   1.841   1.841
275 Au  276 Au  275 Ag  276 Ag  277 Ag  277 Au  278 Au  279 Au                 
  1.849   1.849   1.849   1.849   1.877   1.878   1.878   1.891
280 Au  281 Au  282 Au  283 Au  284 Au  285 Au  286 Au  278 Ag                 
  1.893   1.894   1.895   1.895   1.895   1.896   1.896   1.897
279 Ag  280 Ag  281 Ag  282 Ag  283 Ag  284 Ag  285 Ag  286 Ag                 
  1.897   1.918   1.921   1.921   1.921   1.921   1.921   1.922
287 Ag  287 Au  288 Au  289 Au  288 Ag  289 Ag  290 Ag  291 Ag                 
  1.931   1.932   1.932   1.934   1.934   1.948   1.948   1.949
292 Ag  293 Ag  294 Ag  295 Ag  296 Ag  290 Au  291 Au  292 Au                 
  1.949   1.950   1.987   1.987   1.989   1.990   1.990   1.990
293 Au  294 Au  297 Ag  298 Ag  299 Ag  300 Ag  295 Au  296 Au                 
  1.990   1.991   1.991   2.015   2.015   2.016   2.058   2.058
301 Ag  297 Au  298 Au  299 Au  300 Au  301 Au  302 Au  303 Au                 
  2.058   2.058   2.082   2.082   2.083   2.084   2.084   2.110
304 Au  305 Au  302 Ag  303 Ag  304 Ag  305 Ag  306 Ag  306 Au                 
  2.110   2.111   2.137   2.137   2.138   2.155   2.156   2.157
307 Au  308 Au  309 Au  310 Au  311 Au  307 Ag  308 Ag  309 Ag                 
  2.166   2.166   2.166   2.167   2.167   2.179   2.180   2.180
310 Ag  311 Ag  312 Ag  313 Ag  314 Ag  312 Au  313 Au  314 Au                 
  2.181   2.181   2.181   2.182   2.182   2.182   2.186   2.186
315 Au  316 Au  315 Ag  316 Ag  317 Ag  318 Ag  317 Au  318 Au                 
  2.186   2.186   2.187   2.187   2.189   2.202   2.202   2.205
319 Au  320 Au  321 Au  322 Au  323 Au  319 Ag  320 Ag  321 Ag                 
  2.219   2.219   2.220   2.220   2.223   2.224   2.225   2.225
322 Ag  323 Ag  324 Ag  325 Ag  326 Ag  327 Ag  328 Ag  329 Ag                 
  2.225   2.265   2.266   2.267   2.267   2.268   2.268   2.269
330 Ag  324 Au  325 Au  326 Au  327 Au  328 Au  329 Au  330 Au                 
  2.269   2.321   2.322   2.322   2.365   2.365   2.365   2.366
331 Au  331 Ag  332 Ag  333 Ag  332 Au  333 Au  334 Au  335 Au                 
  2.366   2.409   2.409   2.410   2.410   2.411   2.411   2.411
336 Au  334 Ag  335 Ag  336 Ag  337 Ag  337 Au  338 Au  338 Ag                 
  2.413   2.454   2.454   2.455   2.455   2.456   2.484   2.484
339 Au  339 Ag  340 Ag  341 Ag  342 Ag  343 Ag  344 Ag  345 Ag                 
  2.484   2.484   2.488   2.488   2.489   2.490   2.503   2.503
346 Ag  347 Ag  340 Au  341 Au  342 Au  343 Au  348 Ag  349 Ag                 
  2.503   2.504   2.504   2.504   2.506   2.506   2.556   2.556
350 Ag  344 Au  345 Au  346 Au  347 Au  348 Au  349 Au  350 Au                 
  2.556   2.557   2.557   2.624   2.624   2.625   2.632   2.632
351 Au  352 Au  353 Au  354 Au  355 Au  356 Au  351 Ag  352 Ag                 
  2.632   2.632   2.639   2.641   2.642   2.642   2.645   2.647
353 Ag  354 Ag  357 Au  358 Au  359 Au  360 Au  355 Ag  356 Ag                 
  2.648   2.672   2.672   2.675   2.676   2.676   2.677   2.678
357 Ag  361 Au  362 Au  363 Au  358 Ag  359 Ag  360 Ag  361 Ag                 
  2.678   2.714   2.714   2.714   2.745   2.746   2.747   2.780
362 Ag  364 Au  365 Au  366 Au  363 Ag  364 Ag  365 Ag  366 Ag                 
  2.780   2.781   2.782   2.783   2.786   2.787   2.787   2.787
367 Ag  368 Ag  369 Ag  370 Ag  367 Au  368 Au  369 Au  370 Au                 
  2.787   2.810   2.811   2.811   2.823   2.823   2.823   2.824
371 Au  371 Ag  372 Ag  373 Ag  374 Ag  375 Ag  376 Ag  377 Ag                 
  2.825   2.835   2.835   2.837   2.856   2.856   2.857   2.857
378 Ag  372 Au  373 Au  374 Au  375 Au  376 Au  377 Au  378 Au                 
  2.858   2.901   2.901   2.901   2.901   2.907   2.907   2.908
379 Au  380 Au  381 Au  382 Au  383 Au  379 Ag  380 Ag  381 Ag                 
  2.910   2.926   2.926   2.928   2.945   2.945   2.946   2.948
382 Ag  383 Ag  384 Ag  385 Ag  386 Ag  387 Ag  388 Ag  389 Ag                 
  2.997   2.997   2.997   2.998   2.998   3.023   3.024   3.024
384 Au  385 Au  386 Au  387 Au  388 Au  389 Au  390 Au  391 Au                 
  3.035   3.035   3.036   3.037   3.038   3.044   3.045   3.046
390 Ag  391 Ag  392 Ag  393 Ag  394 Ag  395 Ag  396 Ag  397 Ag                 
  3.054   3.055   3.056   3.057   3.057   3.072   3.075   3.075
392 Au  393 Au  394 Au  395 Au  396 Au  398 Ag  399 Ag  400 Ag                 
  3.106   3.108   3.109   3.110   3.138   3.157   3.158   3.158
397 Au  398 Au  399 Au  400 Au  401 Au  402 Au  403 Au  404 Au                 
  3.159   3.159   3.197   3.197   3.198   3.199   3.207   3.207
405 Au  406 Au  401 Ag  402 Ag  403 Ag  404 Ag  405 Ag  406 Ag                 
  3.207   3.281   3.283   3.284   3.285   3.313   3.313   3.314
407 Ag  407 Au  408 Au  409 Au  410 Au  408 Ag  409 Ag  410 Ag                 
  3.315   3.405   3.407   3.408   3.464   3.464   3.465   3.466
411 Ag  412 Ag  413 Ag  414 Ag  411 Au  412 Au  413 Au  414 Au                 
  3.467   3.584   3.586   3.587   3.588   3.674   3.677   3.677
415 Au  416 Au  417 Au  418 Au  419 Au  415 Ag  416 Ag  417 Ag                 
  3.728   3.730   3.731   3.823   4.239   4.248   4.251   4.251
418 Ag  419 Ag  420 Ag  420 Au  421 Ag  421 Au  422 Au  423 Au                 
  4.270   4.270   4.272   4.273   4.274   4.317   4.319   4.321
422 Ag  423 Ag  424 Ag  425 Ag  426 Ag  424 Au  425 Au  426 Au                 
  4.348   4.348   4.348   4.349   4.413   4.413   4.414   4.415
427 Au  428 Au  429 Au  430 Au  427 Ag  428 Ag  429 Ag  430 Ag                 
  4.415   4.464   4.465   4.465   4.465   4.548   4.548   4.552
431 Ag  432 Ag  433 Ag  434 Ag  435 Ag  431 Au  432 Au  433 Au                 
  4.594   4.594   4.595   4.597   4.598   4.713   4.713   4.714
434 Au  435 Au  436 Au  437 Au  438 Au  439 Au  440 Au  441 Au                 
  4.785   4.785   4.786   4.863   4.864   4.865   4.867   4.868
436 Ag  437 Ag  438 Ag  439 Ag  440 Ag  441 Ag  442 Ag  443 Ag                 
  5.026   5.026   5.027   5.030   5.125   5.125   5.125   5.126
444 Ag  445 Ag  446 Ag  447 Ag  442 Au  443 Au  444 Au  445 Au                 
  5.126   5.328   5.331   5.332   5.333   5.478   5.481   5.482
446 Au  447 Au  448 Au  449 Au  450 Au  448 Ag  449 Ag  450 Ag                 
 --------------------------------------------------------------

          Ground-State Mulliken Net Atomic Charges

     Atom                 Charge (a.u.)    Spin (a.u.)
  --------------------------------------------------------
      1 C                    -0.015667       0.009425
      2 C                    -0.019556       0.036899
      3 C                    -0.019556       0.036899
      4 C                    -0.015667       0.009425
      5 C                    -0.015625       0.011962
      6 C                    -0.011694      -0.016475
      7 C                    -0.011694      -0.016475
      8 C                    -0.015625       0.011962
      9 C                    -0.021998       0.056927
     10 C                    -0.014847       0.000224
     11 C                    -0.014847       0.000224
     12 C                    -0.021998       0.056927
     13 C                    -0.023417       0.059220
     14 C                    -0.014255      -0.000493
     15 C                    -0.013694      -0.002276
     16 C                    -0.022573       0.056394
     17 C                    -0.022573       0.056394
     18 C                    -0.013694      -0.002276
     19 C                    -0.014255      -0.000493
     20 C                    -0.023418       0.059220
     21 C                    -0.015542       0.008741
     22 C                    -0.019337       0.038139
     23 C                    -0.020758       0.039658
     24 C                    -0.015246       0.012332
     25 C                    -0.015246       0.012332
     26 C                    -0.020758       0.039658
     27 C                    -0.019337       0.038139
     28 C                    -0.015542       0.008741
     29 C                    -0.015905       0.011235
     30 C                    -0.011496      -0.017554
     31 C                    -0.011792      -0.014400
     32 C                    -0.016785       0.014257
     33 C                    -0.016785       0.014257
     34 C                    -0.011792      -0.014400
     35 C                    -0.011496      -0.017554
     36 C                    -0.015905       0.011235
     37 C                    -0.025660       0.073296
     38 C                    -0.012181      -0.012380
     39 C                    -0.011948      -0.015028
     40 C                    -0.017355       0.019556
     41 C                    -0.017355       0.019556
     42 C                    -0.011949      -0.015028
     43 C                    -0.012181      -0.012380
     44 C                    -0.025660       0.073296
     45 C                    -0.016632       0.017711
     46 C                    -0.012901      -0.011804
     47 C                    -0.025198       0.072185
     48 C                    -0.012537      -0.011151
     49 C                    -0.012537      -0.011151
     50 C                    -0.025198       0.072185
     51 C                    -0.012901      -0.011804
     52 C                    -0.016632       0.017711
     53 C                    -0.012265      -0.014616
     54 C                    -0.012195      -0.014134
     55 C                    -0.016323       0.020473
     56 C                    -0.024617       0.071677
     57 C                    -0.024618       0.071677
     58 C                    -0.016323       0.020473
     59 C                    -0.012195      -0.014134
     60 C                    -0.012265      -0.014616
  --------------------------------------------------------
  Sum of atomic charges =    -1.000000
  Sum of spin   charges =     1.000000

 -----------------------------------------------------------------
                    Cartesian Multipole Moments
 -----------------------------------------------------------------
    Charge (ESU x 10^10)
                -4.8032
    Dipole Moment (Debye)
         X      -0.0000      Y      -0.0000      Z       0.0000
       Tot       0.0000
    Quadrupole Moments (Debye-Ang)
        XX    -357.9886     XY      -0.9219     YY    -355.4891
        XZ       0.7302     YZ      -2.1753     ZZ    -356.6107
    Octopole Moments (Debye-Ang^2)
       XXX      -0.0000    XXY      -0.0000    XYY      -0.0000
       YYY       0.0000    XXZ      -0.0000    XYZ       0.0000
       YYZ       0.0000    XZZ      -0.0000    YZZ      -0.0000
       ZZZ      -0.0000
    Hexadecapole Moments (Debye-Ang^3)
      XXXX   -8979.3242   XXXY      -2.3138   XXYY   -2982.3833
      XYYY     -12.2102   YYYY   -8942.0579   XXXZ       8.0558
      XXYZ     -10.0259   XYYZ       5.6558   YYYZ      -9.1245
      XXZZ   -2992.4214   XYZZ      -3.5077   YYZZ   -2980.7519
      XZZZ       0.5903   YZZZ     -23.4206   ZZZZ   -8953.9732
 -----------------------------------------------------------------
 Calculating analytic gradient of the SCF energy
 Gradient of SCF Energy
            1           2           3           4           5           6
    1   0.0050000   0.0026553  -0.0026553  -0.0050000   0.0037321  -0.0024803
    2   0.0028824  -0.0019757   0.0019757  -0.0028824  -0.0049007   0.0034901
    3   0.0085711  -0.0092411   0.0092411  -0.0085711  -0.0034252  -0.0038577
            7           8           9          10          11          12
    1   0.0024803  -0.0037321  -0.0042283   0.0034111  -0.0034111   0.0042283
    2  -0.0034901   0.0049007  -0.0006220  -0.0034369   0.0034369   0.0006220
    3   0.0038577   0.0034252  -0.0000189  -0.0037922   0.0037922   0.0000189
           13          14          15          16          17          18
    1  -0.0033582   0.0048634   0.0072222  -0.0034569   0.0034569  -0.0072222
    2   0.0036661  -0.0016214  -0.0024655   0.0039878  -0.0039878   0.0024655
    3  -0.0111805  -0.0043668   0.0012500   0.0074441  -0.0074441  -0.0012500
           19          20          21          22          23          24
    1  -0.0048634   0.0033582  -0.0069734   0.0052188   0.0076738  -0.0036394
    2   0.0016214  -0.0036661  -0.0002095  -0.0013858  -0.0083810  -0.0047849
    3   0.0043668   0.0111805  -0.0075091  -0.0000069  -0.0029272  -0.0039392
           25          26          27          28          29          30
    1   0.0036394  -0.0076738  -0.0052188   0.0069734   0.0014518  -0.0004789
    2   0.0047849   0.0083810   0.0013858   0.0002095   0.0004323  -0.0061737
    3   0.0039392   0.0029272   0.0000069   0.0075091  -0.0075026  -0.0021623
           31          32          33          34          35          36
    1  -0.0020703  -0.0075974   0.0075974   0.0020702   0.0004789  -0.0014518
    2  -0.0034094   0.0008456  -0.0008456   0.0034094   0.0061737  -0.0004323
    3   0.0035022  -0.0008826   0.0008826  -0.0035022   0.0021623   0.0075026
           37          38          39          40          41          42
    1   0.0060799   0.0009678   0.0021119   0.0086616  -0.0086616  -0.0021119
    2  -0.0044761   0.0004353   0.0050972  -0.0012164   0.0012164  -0.0050972
    3   0.0086706   0.0059548  -0.0047769  -0.0056564   0.0056564   0.0047769
           43          44          45          46          47          48
    1  -0.0009678  -0.0060799   0.0096582  -0.0013586  -0.0085768   0.0024692
    2  -0.0004353   0.0044761  -0.0041072   0.0015860   0.0047102   0.0055850
    3  -0.0059548  -0.0086706   0.0001450  -0.0040050  -0.0001561   0.0008566
           49          50          51          52          53          54
    1  -0.0024692   0.0085768   0.0013586  -0.0096582   0.0014781  -0.0060615
    2  -0.0055850  -0.0047102  -0.0015860   0.0041072  -0.0062858  -0.0012297
    3  -0.0008566   0.0001561   0.0040050  -0.0001450   0.0020688  -0.0025738
           55          56          57          58          59          60
    1   0.0049617   0.0030611  -0.0030611  -0.0049617   0.0060615  -0.0014781
    2  -0.0001650  -0.0024999   0.0024999   0.0001650   0.0012297   0.0062858
    3  -0.0044624   0.0002013  -0.0002013   0.0044624   0.0025738  -0.0020688
 Max gradient component =       1.118E-02
 RMS gradient           =       4.641E-03
 Gradient time:  CPU 25405.87 s  wall 3186.87 s

 *****************************************************
             Starting BFGS Algorithm
 *****************************************************
            LIBOPT3 RUN PARAMETERS

  Geometry Optimization Coordinates :
	Delocalized Natural Internal Coordinates

  Step Length Selection Method :
	Eigenvector Following Algorithm

  Convergence Criteria :
	Max Gradient Component    	3.00000000e-04
	Max Displacement Component	1.20000000e-03
	Absolute Energy Difference	1.00000000e-06

  Initial Hessian :
	Approximate Hessian - Simple Internal Coordinate Scaled

  Type of Verification :
	Verify with final updated Hessian
 *****************************************************

	OPTIMIZATION CYCLE:	1

 Scaling Magnitude of Eigenvalues
 	Minimum: -25.00000000	 Maximum: 25.00000000
 174 Hessian Eigenvalues to form next step
   0.10427589   0.10427589   0.10427589   0.10437382   0.10437655
   0.10437655   0.10437655   0.10455793   0.10455986   0.10455986
   0.10455986   0.10463317   0.10463317   0.10463656   0.10463656
   0.10463656   0.10492430   0.10492430   0.10492430   0.10500262
   0.10500263   0.10500344   0.10500344   0.10500344   0.10562690
   0.10562691   0.10562691   0.10624673   0.10624673   0.10624673
   0.10986334   0.10986334   0.10987431   0.10987431   0.10987431
   0.11206765   0.11206765   0.11206765   0.11207663   0.11207663
   0.11402057   0.11402057   0.11402057   0.11404606   0.12339952
   0.12341785   0.12341786   0.12341786   0.12668801   0.12668801
   0.12668801   0.14271826   0.14544845   0.14544846   0.14544846
   0.14793390   0.14793390   0.14794523   0.14794523   0.14794523
   0.14826117   0.14826117   0.14826117   0.14896606   0.14896606
   0.14897498   0.14897498   0.14897498   0.15141068   0.15141068
   0.15141068   0.15141225   0.15712391   0.15712391   0.15712391
   0.15713681   0.15735845   0.15735846   0.15735846   0.16314499
   0.16314499   0.16314499   0.16316646   0.16316647   0.23923334
   0.23923335   0.23923335   0.23925598   0.24185868   0.24192255
   0.24192255   0.24192255   0.25120087   0.25120088   0.25120088
   0.25120358   0.25120359   0.25958299   0.25958299   0.25958300
   0.27534601   0.27534602   0.27536013   0.27536013   0.27536014
   0.29467004   0.29467005   0.29467006   0.29471007   0.29471008
   0.38275278   0.38275278   0.38275279   0.39406936   0.39406937
   0.39406938   0.45191401   0.45191402   0.45191887   0.45191887
   0.45191887   0.45356422   0.45356422   0.45356422   0.45609731
   0.45609731   0.45609732   0.45609894   0.45609895   0.46701775
   0.46702440   0.46702440   0.46702440   0.46781109   0.46781109
   0.46781109   0.46782704   0.47033414   0.47033414   0.47033414
   0.47695231   0.47695231   0.47695231   0.47696619   0.47696620
   0.49999999   0.49999999   0.49999999   0.49999999   0.49999999
   0.49999999   0.49999999   0.49999999   0.49999999   0.49999999
   0.50000000   0.50000000   0.50000000   0.50000000   0.50000000
   0.50000000   0.50000000   0.50000000   0.50000000   0.50000000
   0.50000000   0.50000000   0.50000000   0.50000000   0.50000000
   0.50000000   0.50000000   0.50000000   0.50000000

 Minimum Search taking a RFO step
 Searching for Lambda that minimizes along all modes
	Value of Lambda   -0.00686753
	Norm  of Stepsize  0.13248886
	RMS   of Stepsize  0.01004395

	Performing Iterative Coordinate Back-Transformation

	  Starting from Previous Position

	  iter:	0	rms: 1.6160420074e-02	maxdev: 3.7166127307e-02
	  iter:	1	rms: 2.6010001284e-05	maxdev: 6.9387983595e-05
	  iter:	2	rms: 2.8078470888e-10	maxdev: 6.8814612705e-10	 Success!

	Finished Iterative Coordinate Back-Transformation
 ----------------------------------------------------------------
             Standard Nuclear Orientation (Angstroms)
    I     Atom           X                Y                Z
 ----------------------------------------------------------------
    1      C       3.4098693781    -0.9351367375    -0.1117877618
    2      C       3.5057623823     0.4449330044     0.0579340302
    3      C      -3.5057623816    -0.4449330041    -0.0579340284
    4      C      -3.4098693781     0.9351367377     0.1117877626
    5      C       0.6893105085     0.3753309351    -3.4496169323
    6      C      -0.6962850345     0.4707576129    -3.4403631971
    7      C       0.6962850337    -0.4707576122     3.4403631974
    8      C      -0.6893105108    -0.3753309353     3.4496169327
    9      C      -0.2402130813    -3.3546880335    -1.0984091430
   10      C      -0.2420778297    -3.5268690892     0.2830622508
   11      C       0.2420778303     3.5268690902    -0.2830622508
   12      C       0.2402130821     3.3546880343     1.0984091421
   13      C       2.9169195048    -1.4787248760    -1.3544597527
   14      C       2.9125732539    -1.7615419486     0.9742740152
   15      C       3.1055033029     1.3371233650    -1.0187581528
   16      C       3.1125219710     1.0498372811     1.3080385180
   17      C      -3.1125219696    -1.0498372818    -1.3080385175
   18      C      -3.1055033029    -1.3371233627     1.0187581543
   19      C      -2.9125732529     1.7615419500    -0.9742740157
   20      C      -2.9169195052     1.4787248769     1.3544597509
   21      C       1.3341545792    -0.8925668200    -3.1479774499
   22      C       1.4923016642     1.4323648400    -2.8731465526
   23      C      -1.5026566346    -0.6922006338    -3.1318102295
   24      C      -1.3347775034     1.6326768214    -2.8514878071
   25      C       1.3347775026    -1.6326768203     2.8514878075
   26      C       1.5026566330     0.6922006329     3.1318102301
   27      C      -1.4923016641    -1.4323648394     2.8731465538
   28      C      -1.3341545815     0.8925668197     3.1479774492
   29      C       0.9566918839    -2.9024916385    -1.7728830375
   30      C      -1.3761386223    -2.7352146112    -1.7570827776
   31      C       0.9598591486    -3.2520217536     1.0439613873
   32      C      -1.3767055628    -3.0905506905     1.0639533990
   33      C       1.3767055630     3.0905506910    -1.0639533990
   34      C      -0.9598591481     3.2520217546    -1.0439613872
   35      C       1.3761386218     2.7352146114     1.7570827773
   36      C      -0.9566918830     2.9024916384     1.7728830366
   37      C       2.5328552562    -0.6212449342    -2.3907729295
   38      C       2.5346488518    -1.1798574301     2.1754366531
   39      C       2.6293787248     0.8127499235    -2.2150010208
   40      C       2.6349002976     0.2565908637     2.3514259501
   41      C      -2.6349002971    -0.2565908647    -2.3514259498
   42      C      -2.6293787260    -0.8127499222     2.2150010214
   43      C      -2.5346488510     1.1798574314    -2.1754366523
   44      C      -2.5328552556     0.6212449347     2.3907729307
   45      C       0.5577928265    -2.0101200615    -2.8503615606
   46      C       0.8808707693     2.5450806767    -2.3086083360
   47      C      -0.8823567459    -1.9103080786    -2.8425875360
   48      C      -0.5652413012     2.6446308306    -2.2991557626
   49      C       0.5652413000    -2.6446308295     2.2991557628
   50      C       0.8823567449     1.9103080777     2.8425875358
   51      C      -0.8808707686    -2.5450806754     2.3086083363
   52      C      -0.5577928266     2.0101200619     2.8503615594
   53      C       2.1100889428    -2.6390434604    -1.0431915882
   54      C      -2.4673629438    -2.3158086863    -1.0056091858
   55      C       2.1081423206    -2.8192419595     0.3976239511
   56      C      -2.4691582103    -2.4970591643     0.4325299090
   57      C       2.4691582126     2.4970591648    -0.4325299080
   58      C      -2.1081423208     2.8192419609    -0.3976239503
   59      C       2.4673629439     2.3158086866     1.0056091858
   60      C      -2.1100889438     2.6390434606     1.0431915867
 ----------------------------------------------------------------
 Molecular Point Group                 Ci    NOp =  2
 Largest Abelian Subgroup              Ci    NOp =  2
 Nuclear Repulsion Energy =        8352.45098111 hartrees
 There are      181 alpha and      180 beta electrons
 Applying Cartesian multipole field
    Component          Value
    ---------          -----
     (2,0,0)        1.00000E-11
     (0,2,0)        2.00000E-11
     (0,0,2)       -3.00000E-11
 Requested basis set is 6-31G(d)
 There are 240 shells and 900 basis functions
 A cutoff of  1.0D-12 yielded  17736 shell pairs
 There are    279006 function pairs
 Smallest overlap matrix eigenvalue = 3.13E-04
 Guess MOs from SCF MO coefficient file

 -----------------------------------------------------------------------
  General SCF calculation program by
  Eric Jon Sundstrom, Paul Horn, Yuezhi Mao, Dmitri Zuev, Alec White,
  David Stuck, Shaama M.S., Shane Yost, Joonho Lee, David Small,
  Daniel Levine, Susi Lehtola, Hugh Burton, Evgeny Epifanovsky,
  Bang C. Huynh
 -----------------------------------------------------------------------
 Exchange:     0.2220 Hartree-Fock + 1.0000 wB97X-D + LR-HF
 Correlation:  1.0000 wB97X-D
 Using SG-2 standard quadrature grid
 Dispersion:   Grimme D
 A unrestricted SCF calculation will be
 performed using DIIS
 SCF converges when DIIS error is below 1.0e-08
 ---------------------------------------
  Cycle       Energy         DIIS error
 ---------------------------------------
    1   -2285.4933565719      8.81e-05  
    2   -2285.4989082809      2.18e-05  
    3   -2285.4992232040      1.69e-05  
    4   -2285.4993271507      3.85e-06  
    5   -2285.4993339451      2.74e-06  
    6   -2285.4993377233      5.58e-07  
    7   -2285.4993380507      1.25e-07  
    8   -2285.4993380816      1.14e-07  
    9   -2285.4993380968      4.88e-08  
   10   -2285.4993381057      3.03e-08  
   11   -2285.4993381110      2.12e-08  
   12   -2285.4993381142      1.58e-08  
   13   -2285.4993381176      1.47e-08  
   14   -2285.4993381206      1.39e-08  
   15   -2285.4993381266      1.29e-08  
   16   -2285.4993381337      1.05e-08  
   17   -2285.4993381443      6.07e-09  Convergence criterion met
 ---------------------------------------
 SCF time:   CPU 4659.43s  wall 636.00s 
<S^2> =          0.766777810
 SCF   energy in the final basis set =    -2285.4993381443
 Total energy in the final basis set =    -2285.4993381443

 --------------------------------------------------------------
             Orbital Energies (a.u.) and Symmetries
 --------------------------------------------------------------

 Alpha MOs, Unrestricted
 -- Occupied --                  
-10.232 -10.232 -10.231 -10.231 -10.230 -10.230 -10.230 -10.230
  1 Au    1 Ag    2 Ag    2 Au    3 Ag    3 Au    4 Ag    4 Au                 
-10.230 -10.230 -10.229 -10.229 -10.229 -10.229 -10.229 -10.229
  5 Au    5 Ag    6 Au    6 Ag    7 Ag    7 Au    8 Au    8 Ag                 
-10.228 -10.228 -10.228 -10.228 -10.228 -10.228 -10.228 -10.228
  9 Au    9 Ag   10 Au   10 Ag   11 Au   11 Ag   12 Ag   12 Au                 
-10.228 -10.228 -10.227 -10.227 -10.227 -10.227 -10.227 -10.227
 13 Au   13 Ag   14 Au   14 Ag   15 Au   15 Ag   16 Ag   16 Au                 
-10.227 -10.227 -10.226 -10.226 -10.226 -10.226 -10.225 -10.225
 17 Ag   17 Au   18 Au   18 Ag   19 Au   19 Ag   20 Ag   20 Au                 
-10.225 -10.225 -10.225 -10.225 -10.225 -10.225 -10.224 -10.224
 21 Au   21 Ag   22 Au   22 Ag   23 Ag   23 Au   24 Ag   24 Au                 
-10.223 -10.223 -10.223 -10.223 -10.223 -10.223 -10.221 -10.221
 25 Ag   25 Au   26 Au   26 Ag   27 Au   27 Ag   28 Ag   28 Au                 
-10.221 -10.221 -10.220 -10.220  -0.959  -0.941  -0.937  -0.937
 29 Ag   29 Au   30 Au   30 Ag   31 Ag   31 Au   32 Au   33 Au                 
 -0.902  -0.901  -0.901  -0.898  -0.898  -0.861  -0.860  -0.858
 32 Ag   33 Ag   34 Ag   35 Ag   36 Ag   34 Au   35 Au   36 Au                 
 -0.827  -0.827  -0.826  -0.824  -0.775  -0.775  -0.775  -0.774
 37 Au   38 Au   39 Au   40 Au   37 Ag   38 Ag   39 Ag   40 Ag                 
 -0.774  -0.758  -0.757  -0.756  -0.756  -0.701  -0.700  -0.699
 41 Ag   42 Ag   43 Ag   44 Ag   45 Ag   41 Au   42 Au   43 Au                 
 -0.697  -0.695  -0.687  -0.684  -0.684  -0.640  -0.640  -0.640
 44 Au   45 Au   46 Au   47 Au   48 Au   49 Au   50 Au   51 Au                 
 -0.603  -0.603  -0.601  -0.600  -0.600  -0.600  -0.599  -0.595
 46 Ag   47 Ag   48 Ag   49 Ag   50 Ag   51 Ag   52 Ag   53 Ag                 
 -0.573  -0.532  -0.530  -0.529  -0.528  -0.505  -0.504  -0.503
 54 Ag   55 Ag   56 Ag   57 Ag   58 Ag   52 Au   53 Au   54 Au                 
 -0.502  -0.501  -0.489  -0.485  -0.485  -0.462  -0.460  -0.460
 55 Au   56 Au   57 Au   58 Au   59 Au   59 Ag   60 Au   61 Au                 
 -0.460  -0.440  -0.437  -0.437  -0.434  -0.434  -0.433  -0.433
 62 Au   63 Au   64 Au   65 Au   66 Au   67 Au   68 Au   69 Au                 
 -0.414  -0.413  -0.412  -0.410  -0.410  -0.399  -0.398  -0.397
 60 Ag   61 Ag   62 Ag   63 Ag   64 Ag   65 Ag   66 Ag   67 Ag                 
 -0.397  -0.392  -0.391  -0.391  -0.389  -0.389  -0.387  -0.386
 68 Ag   69 Ag   70 Ag   71 Ag   72 Ag   73 Ag   74 Ag   75 Ag                 
 -0.386  -0.367  -0.367  -0.365  -0.363  -0.332  -0.330  -0.328
 76 Ag   70 Au   71 Au   72 Au   73 Au   74 Au   75 Au   76 Au                 
 -0.322  -0.321  -0.321  -0.321  -0.320  -0.312  -0.311  -0.310
 77 Ag   78 Ag   79 Ag   80 Ag   81 Ag   77 Au   78 Au   79 Au                 
 -0.310  -0.309  -0.308  -0.308  -0.307  -0.306  -0.235  -0.234
 80 Au   81 Au   82 Au   83 Au   84 Au   85 Au   82 Ag   83 Ag                 
 -0.233  -0.232  -0.232  -0.229  -0.228  -0.224  -0.224  -0.177
 84 Ag   85 Ag   86 Ag   87 Ag   88 Ag   89 Ag   90 Ag   86 Au                 
 -0.175  -0.170  -0.168  -0.165  -0.073
 87 Au   88 Au   89 Au   90 Au   91 Au                                         
 -- Virtual --                   
  0.050   0.050   0.081   0.081   0.103   0.142   0.144   0.145
 92 Au   93 Au   91 Ag   92 Ag   93 Ag   94 Au   94 Ag   95 Au                 
  0.146   0.147   0.148   0.150   0.151   0.216   0.217   0.220
 95 Ag   96 Ag   96 Au   97 Ag   98 Ag   97 Au   98 Au   99 Au                 
  0.221   0.223   0.239   0.241   0.242   0.242   0.267   0.268
100 Au  101 Au   99 Ag  100 Ag  101 Ag  102 Ag  102 Au  103 Au                 
  0.268   0.268   0.289   0.291   0.292   0.320   0.322   0.322
104 Au  105 Au  103 Ag  104 Ag  105 Ag  106 Au  107 Au  108 Au                 
  0.347   0.348   0.349   0.350   0.351   0.378   0.378   0.383
106 Ag  107 Ag  108 Ag  109 Ag  110 Ag  111 Ag  112 Ag  109 Au                 
  0.384   0.384   0.386   0.394   0.394   0.394   0.395   0.428
110 Au  113 Ag  111 Au  112 Au  113 Au  114 Au  115 Au  114 Ag                 
  0.428   0.428   0.430   0.430   0.449   0.451   0.452   0.452
115 Ag  116 Ag  117 Ag  118 Ag  119 Ag  120 Ag  121 Ag  122 Ag                 
  0.487   0.487   0.489   0.491   0.491   0.508   0.511   0.511
116 Au  117 Au  118 Au  119 Au  120 Au  121 Au  122 Au  123 Au                 
  0.526   0.527   0.527   0.564   0.564   0.564   0.587   0.587
124 Au  125 Au  126 Au  123 Ag  124 Ag  125 Ag  127 Au  128 Au                 
  0.588   0.590   0.593   0.642   0.647   0.647   0.651   0.653
129 Au  130 Au  131 Au  126 Ag  127 Ag  128 Ag  129 Ag  130 Ag                 
  0.666   0.667   0.667   0.668   0.670   0.670   0.671   0.671
132 Au  133 Au  134 Au  135 Au  131 Ag  132 Ag  133 Ag  134 Ag                 
  0.673   0.674   0.674   0.677   0.677   0.677   0.680   0.680
135 Ag  136 Ag  136 Au  137 Au  138 Au  137 Ag  138 Ag  139 Ag                 
  0.699   0.699   0.700   0.701   0.701   0.702   0.704   0.705
140 Ag  141 Ag  142 Ag  139 Au  143 Ag  144 Ag  140 Au  141 Au                 
  0.709   0.709   0.709   0.726   0.726   0.726   0.726   0.730
145 Ag  146 Ag  147 Ag  142 Au  143 Au  144 Au  145 Au  146 Au                 
  0.731   0.733   0.733   0.734   0.734   0.735   0.742   0.744
147 Au  148 Au  148 Ag  149 Ag  150 Ag  151 Ag  152 Ag  149 Au                 
  0.745   0.747   0.747   0.748   0.749   0.749   0.750   0.750
150 Au  151 Au  153 Ag  152 Au  154 Ag  155 Ag  153 Au  156 Ag                 
  0.750   0.752   0.752   0.752   0.752   0.753   0.755   0.755
157 Ag  158 Ag  159 Ag  160 Ag  161 Ag  154 Au  155 Au  156 Au                 
  0.773   0.773   0.775   0.775   0.776   0.776   0.776   0.776
157 Au  158 Au  159 Au  160 Au  161 Au  162 Ag  162 Au  163 Ag                 
  0.777   0.777   0.778   0.779   0.779   0.818   0.818   0.819
164 Ag  163 Au  164 Au  165 Ag  166 Ag  165 Au  166 Au  167 Ag                 
  0.820   0.820   0.820   0.820   0.822   0.822   0.822   0.832
167 Au  168 Ag  169 Ag  168 Au  170 Ag  169 Au  171 Ag  172 Ag                 
  0.832   0.834   0.846   0.847   0.847   0.847   0.847   0.847
173 Ag  174 Ag  170 Au  175 Ag  176 Ag  171 Au  177 Ag  172 Au                 
  0.848   0.848   0.856   0.856   0.857   0.857   0.857   0.865
178 Ag  173 Au  174 Au  175 Au  176 Au  177 Au  178 Au  179 Au                 
  0.865   0.865   0.866   0.867   0.867   0.867   0.882   0.882
179 Ag  180 Au  181 Au  180 Ag  181 Ag  182 Au  182 Ag  183 Ag                 
  0.883   0.883   0.884   0.884   0.891   0.891   0.892   0.904
184 Ag  183 Au  184 Au  185 Au  186 Au  187 Au  188 Au  189 Au                 
  0.904   0.904   0.904   0.911   0.911   0.912   0.912   0.919
190 Au  191 Au  192 Au  185 Ag  186 Ag  187 Ag  188 Ag  193 Au                 
  0.932   0.933   0.933   0.945   0.946   0.947   0.947   0.948
189 Ag  190 Ag  191 Ag  192 Ag  193 Ag  194 Ag  195 Ag  196 Ag                 
  0.951   0.952   0.953   0.964   0.964   0.965   0.966   0.980
194 Au  195 Au  196 Au  197 Au  198 Au  199 Au  200 Au  197 Ag                 
  0.981   0.981   0.982   0.982   0.998   0.998   1.000   1.000
198 Ag  199 Ag  200 Ag  201 Ag  201 Au  202 Au  203 Au  204 Au                 
  1.001   1.001   1.001   1.002   1.002   1.007   1.007   1.008
202 Ag  205 Au  203 Ag  204 Ag  205 Ag  206 Ag  207 Ag  208 Ag                 
  1.008   1.008   1.024   1.025   1.025   1.056   1.057   1.057
209 Ag  210 Ag  206 Au  207 Au  208 Au  209 Au  210 Au  211 Au                 
  1.098   1.098   1.099   1.099   1.112   1.112   1.113   1.113
212 Au  213 Au  214 Au  215 Au  211 Ag  212 Ag  213 Ag  214 Ag                 
  1.114   1.133   1.133   1.134   1.194   1.194   1.198   1.201
215 Ag  216 Au  217 Au  218 Au  216 Ag  217 Ag  218 Ag  219 Au                 
  1.202   1.203   1.203   1.205   1.205   1.221   1.223   1.224
219 Ag  220 Au  220 Ag  221 Au  221 Ag  222 Ag  223 Ag  224 Ag                 
  1.224   1.230   1.231   1.232   1.233   1.234   1.235   1.243
225 Ag  226 Ag  227 Ag  228 Ag  229 Ag  230 Ag  231 Ag  222 Au                 
  1.243   1.245   1.245   1.245   1.257   1.259   1.260   1.260
223 Au  224 Au  225 Au  226 Au  227 Au  228 Au  229 Au  230 Au                 
  1.268   1.268   1.270   1.271   1.272   1.326   1.327   1.327
231 Au  232 Au  233 Au  234 Au  235 Au  232 Ag  233 Ag  236 Au                 
  1.327   1.327   1.328   1.332   1.334   1.335   1.337   1.338
234 Ag  237 Au  238 Au  235 Ag  236 Ag  237 Ag  238 Ag  239 Ag                 
  1.341   1.341   1.342   1.343   1.350   1.354   1.354   1.359
240 Ag  241 Ag  242 Ag  243 Ag  239 Au  240 Au  241 Au  244 Ag                 
  1.359   1.361   1.384   1.384   1.384   1.385   1.433   1.433
245 Ag  246 Ag  247 Ag  248 Ag  249 Ag  250 Ag  242 Au  243 Au                 
[...]
    3   0.0000467   0.0000179  -0.0000179  -0.0000467  -0.0000249  -0.0000304
            7           8           9          10          11          12
    1  -0.0000185  -0.0000407   0.0000680  -0.0000495   0.0000495  -0.0000680
    2   0.0000163  -0.0000315  -0.0000038  -0.0000115   0.0000115   0.0000038
    3   0.0000304   0.0000249  -0.0000580   0.0000127  -0.0000127   0.0000580
           13          14          15          16          17          18
    1  -0.0000051  -0.0000127  -0.0000179  -0.0000096   0.0000096   0.0000179
    2  -0.0000787  -0.0000199   0.0000585  -0.0000032   0.0000032  -0.0000585
    3  -0.0000063   0.0000386   0.0000210   0.0000505  -0.0000505  -0.0000210
           19          20          21          22          23          24
    1   0.0000127   0.0000051  -0.0000542  -0.0000295   0.0000525   0.0000404
    2   0.0000199   0.0000787  -0.0000550  -0.0000075  -0.0000227   0.0000147
    3  -0.0000386   0.0000063   0.0000445   0.0000092  -0.0000611   0.0000007
           25          26          27          28          29          30
    1  -0.0000404  -0.0000525   0.0000295   0.0000542  -0.0000505  -0.0000123
    2  -0.0000147   0.0000227   0.0000075   0.0000550  -0.0000236   0.0000278
    3  -0.0000007   0.0000611  -0.0000092  -0.0000445   0.0000437  -0.0000070
           31          32          33          34          35          36
    1   0.0000348   0.0000106  -0.0000106  -0.0000348   0.0000123   0.0000505
    2   0.0000012  -0.0000760   0.0000760  -0.0000012  -0.0000278   0.0000236
    3  -0.0000120  -0.0000063   0.0000063   0.0000120   0.0000070  -0.0000437
           37          38          39          40          41          42
    1   0.0000830   0.0000328   0.0000406   0.0000416  -0.0000416  -0.0000406
    2   0.0000642  -0.0000183  -0.0000590   0.0000166  -0.0000166   0.0000590
    3  -0.0000087   0.0000223   0.0000268  -0.0000138   0.0000138  -0.0000268
           43          44          45          46          47          48
    1  -0.0000328  -0.0000830   0.0000679   0.0000548  -0.0000212  -0.0000292
    2   0.0000183  -0.0000642   0.0000732  -0.0000332  -0.0000162  -0.0000034
    3  -0.0000223   0.0000087   0.0000075  -0.0000104  -0.0000063  -0.0000406
           49          50          51          52          53          54
    1   0.0000292   0.0000212  -0.0000548  -0.0000679   0.0000678   0.0000479
    2   0.0000034   0.0000162   0.0000332  -0.0000732  -0.0000017   0.0000091
    3   0.0000406   0.0000063   0.0000104  -0.0000075  -0.0000387  -0.0000081
           55          56          57          58          59          60
    1  -0.0000209  -0.0000890   0.0000890   0.0000209  -0.0000479  -0.0000678
    2   0.0000176   0.0000425  -0.0000425  -0.0000176  -0.0000091   0.0000017
    3   0.0000454  -0.0000210   0.0000210  -0.0000454   0.0000081   0.0000387
 Max gradient component =       8.900E-05
 RMS gradient           =       3.958E-05
 Gradient time:  CPU 25562.94 s  wall 3206.16 s

     Step 6	:
        Energy is -2285.4999077130
                            Maximum         Tolerance       Converged?
         Gradient           1.20900907e-04	3.00000000e-04	true
         Displacement       1.78619729e-03	1.20000000e-03	false
         Energy change      8.26137693e-07	1.00000000e-06	true

	 Optimization Converged in 6 cycles

 *****************************************************
             End of BFGS Algorithm
 *****************************************************
		----------------------------------
		   Verification of Optimization
		----------------------------------

 Eigenvalues of Hessian in Optimization Verification
   0.03441528   0.08319108   0.10427597   0.10427605   0.10437382
   0.10437655   0.10437655   0.10437655   0.10439118   0.10455874
   0.10456000   0.10456047   0.10463317   0.10463317   0.10463656
   0.10463656   0.10463656   0.10468868   0.10492430   0.10492430
   0.10492430   0.10500275   0.10500342   0.10517504   0.10550167
   0.10562689   0.10562712   0.10610413   0.10624673   0.10624673
   0.10624673   0.10986334   0.10986334   0.10987431   0.10987431
   0.10987431   0.11021094   0.11207134   0.11207607   0.11209342
   0.11401349   0.11401970   0.11403661   0.11405658   0.12339952
   0.12341785   0.12341786   0.12341786   0.12668801   0.12668801
   0.12668801   0.14271826   0.14544713   0.14544844   0.14544861
   0.14793390   0.14793390   0.14794523   0.14794523   0.14794523
   0.14826027   0.14826220   0.14826240   0.14896606   0.14896606
   0.14897498   0.14897498   0.14897498   0.15140823   0.15141118
   0.15141224   0.15141789   0.15712391   0.15712391   0.15712391
   0.15713681   0.15735176   0.15735842   0.15736316   0.16292434
   0.16314612   0.16315904   0.16323082   0.17013975   0.19388706
   0.23919966   0.23923394   0.23923900   0.23925240   0.24185868
   0.24192255   0.24192255   0.24192255   0.25118634   0.25120246
   0.25129070   0.25305704   0.25958299   0.25958299   0.25958300
   0.27534601   0.27534602   0.27536013   0.27536013   0.27536014
   0.28800323   0.29466323   0.29468052   0.29470339   0.29585286
   0.38272304   0.38275140   0.38275411   0.39406936   0.39406937
   0.39406938   0.42377795   0.45191401   0.45191402   0.45191887
   0.45191887   0.45191887   0.45356422   0.45356422   0.45356422
   0.45453928   0.45609249   0.45610143   0.45611102   0.45728684
   0.46701775   0.46702440   0.46702440   0.46702440   0.46763793
   0.46781125   0.46781342   0.46782596   0.47033377   0.47033555
   0.47035358   0.47695231   0.47695231   0.47695231   0.47696619
   0.47696620   0.48168199   0.49978169   0.49999999   0.49999999
   0.49999999   0.49999999   0.49999999   0.49999999   0.50000000
   0.50000000   0.50000000   0.50000000   0.50000000   0.50000000
   0.50000000   0.50000000   0.50000000   0.50000000   0.50000000
   0.50000000   0.50000000   0.50000000   0.50000000   0.50000000
   0.50001154   0.50067176   0.50196609   0.59228195

 Found a minimum
		---------------------------------
		       End of Verification
		---------------------------------

 Final energy is -2285.499907712972

	******************************
	**  OPTIMIZATION CONVERGED  **
	******************************
 ----------------------------------------------------------------
             Standard Nuclear Orientation (Angstroms)
    I     Atom           X                Y                Z
 ----------------------------------------------------------------
    1      C       3.4084867537    -0.9352387943    -0.1161009558
    2      C       3.5050745054     0.4454932127     0.0607269118
    3      C      -3.5050745055    -0.4454932122    -0.0607269117
    4      C      -3.4084867538     0.9352387948     0.1161009559
    5      C       0.6889540076     0.3747441076    -3.4444292212
    6      C      -0.6958704617     0.4677434121    -3.4361350173
    7      C       0.6958704616    -0.4677434116     3.4361350175
    8      C      -0.6889540077    -0.3747441070     3.4444292214
    9      C      -0.2394584133    -3.3545466444    -1.0988547972
   10      C      -0.2441321263    -3.5288117774     0.2836523860
   11      C       0.2441321262     3.5288117779    -0.2836523858
   12      C       0.2394584132     3.3545466449     1.0988547974
   13      C       2.9232597425    -1.4809562981    -1.3552450254
   14      C       2.9099117355    -1.7594446996     0.9724560389
   15      C       3.0998244160     1.3360686468    -1.0166000310
   16      C       3.1151439846     1.0492186064     1.3062244011
   17      C      -3.1151439848    -1.0492186059    -1.3062244009
   18      C      -3.0998244160    -1.3360686464     1.0166000311
   19      C      -2.9099117357     1.7594447001    -0.9724560387
   20      C      -2.9232597425     1.4809562986     1.3552450255
   21      C       1.3366876041    -0.8930713763    -3.1435960878
   22      C       1.4914128997     1.4311835168    -2.8714890907
   23      C      -1.5068083706    -0.6929768351    -3.1339026332
   24      C      -1.3338373707     1.6319231159    -2.8496243932
   25      C       1.3338373706    -1.6319231154     2.8496243934
   26      C       1.5068083705     0.6929768357     3.1339026334
   27      C      -1.4914128998    -1.4311835164     2.8714890909
   28      C      -1.3366876042     0.8930713768     3.1435960880
   29      C       0.9550372675    -2.9002471602    -1.7702690930
   30      C      -1.3730703764    -2.7292436269    -1.7545087728
   31      C       0.9589700378    -3.2524721077     1.0426383266
   32      C      -1.3772611687    -3.0943886624     1.0644821883
   33      C       1.3772611686     3.0943886629    -1.0644821881
   34      C      -0.9589700379     3.2524721081    -1.0426383264
   35      C       1.3730703764     2.7292436275     1.7545087730
   36      C      -0.9550372675     2.9002471608     1.7702690932
   37      C       2.5356296625    -0.6225322198    -2.3961191050
   38      C       2.5325351439    -1.1771201179     2.1724931765
   39      C       2.6254924221     0.8088806991    -2.2106819022
   40      C       2.6338352905     0.2589529149     2.3539212402
   41      C      -2.6338352906    -0.2589529144    -2.3539212400
   42      C      -2.6254924221    -0.8088806986     2.2106819023
   43      C      -2.5325351440     1.1771201184    -2.1724931763
   44      C      -2.5356296626     0.6225322203     2.3961191052
   45      C       0.5544572784    -2.0084624828    -2.8493620986
   46      C       0.8824082076     2.5461110231    -2.3072672609
   47      C      -0.8806873737    -1.9131816727    -2.8459968377
   48      C      -0.5644025119     2.6448366363    -2.2987247258
   49      C       0.5644025118    -2.6448366358     2.2987247259
   50      C       0.8806873736     1.9131816732     2.8459968379
   51      C      -0.8824082077    -2.5461110226     2.3072672610
   52      C      -0.5544572785     2.0084624833     2.8493620988
   53      C       2.1088205942    -2.6342669750    -1.0438639379
   54      C      -2.4627973391    -2.3117246342    -1.0029632721
   55      C       2.1068790886    -2.8177773840     0.3969454246
   56      C      -2.4709480062    -2.4979412749     0.4325536221
   57      C       2.4709480062     2.4979412754    -0.4325536220
   58      C      -2.1068790887     2.8177773845    -0.3969454245
   59      C       2.4627973390     2.3117246347     1.0029632722
   60      C      -2.1088205943     2.6342669756     1.0438639381
 ----------------------------------------------------------------
 Molecular Point Group                 Ci    NOp =  2
 Largest Abelian Subgroup              Ci    NOp =  2
 Nuclear Repulsion Energy =        8355.22198300 hartrees
 There are      181 alpha and      180 beta electrons

Z-matrix Print:
$molecule
-1 2
C 
C  1 1.388037
C  2 1.447568 1 120.176329
C  3 1.396866 2 119.943395 1 0.260854 0
C  4 1.443052 3 119.904699 2 -0.267977 0
C  5 1.393455 4 120.121146 3 -0.012144 0
C  6 1.443608 5 120.236585 4 137.839796 0
C  7 1.389110 6 120.285455 5 0.043750 0
C  3 1.444487 2 107.454050 1 142.230707 0
C  9 1.388794 3 120.283380 2 -142.167709 0
C  4 1.445684 3 119.667483 2 137.455415 0
C  11 1.390071 4 120.208515 3 0.014073 0
C  12 1.445083 11 120.264949 4 -137.986767 0
C  13 1.387968 12 120.178270 11 -0.072634 0
C  8 1.445820 7 120.530268 6 -138.971065 0
C  15 1.403769 8 119.468075 7 0.366523 0
C  15 1.438308 8 107.887404 7 142.158589 0
C  17 1.395356 15 120.528719 8 -141.891437 0
C  18 1.437983 17 120.426607 15 138.556455 0
C  19 1.397801 18 120.345246 17 -0.043992 0
C  20 1.437685 19 120.390544 18 -138.049522 0
C  21 1.401363 20 120.109521 19 0.122668 0
C  22 1.438308 21 120.199505 20 137.487586 0
C  23 1.393756 22 120.496405 21 0.268826 0
C  16 1.438532 15 120.027997 8 0.001238 0
C  25 1.393756 16 120.568915 15 -0.352166 0
C  26 1.438308 25 120.496405 16 138.991055 0
C  27 1.401363 26 120.199505 25 -0.268826 0
C  28 1.437685 27 120.109521 26 -137.487586 0
C  29 1.397801 28 120.390544 27 -0.122668 0
C  30 1.437983 29 120.345246 28 138.049522 0
C  31 1.395356 30 120.426607 29 0.043992 0
C  32 1.438308 31 120.528719 30 -138.556455 0
C  33 1.403769 32 119.996659 31 0.338028 0
C  33 1.445820 32 107.887404 31 141.891437 0
C  35 1.389110 33 120.530268 32 -142.158589 0
C  36 1.443608 35 120.285455 33 138.971065 0
C  37 1.393455 36 120.236585 35 -0.043750 0
C  38 1.443052 37 120.121146 36 -137.839796 0
C  39 1.396866 38 119.904699 37 0.012144 0
C  40 1.444487 39 120.093053 38 137.481549 0
C  41 1.388794 40 120.283380 39 0.265568 0
C  39 1.445684 38 108.092006 37 142.065363 0
C  43 1.390071 39 120.208515 38 -142.172970 0
C  44 1.445083 43 120.264949 39 137.986767 0
C  45 1.387968 44 120.178270 43 0.072634 0
C  40 1.447568 39 119.943395 38 0.267977 0
C  47 1.388037 40 120.176329 39 -0.260854 0
C  38 1.449096 37 119.539073 36 0.078689 0
C  49 1.386930 38 120.204522 37 0.009512 0
C  50 1.447806 49 120.206285 38 -137.992993 0
C  51 1.386219 50 120.012963 49 -0.001345 0
C  5 1.449096 4 108.126547 3 142.143090 0
C  53 1.386930 5 120.204522 4 -142.422855 0
C  54 1.447806 53 120.206285 5 137.992993 0
C  55 1.386219 54 120.012963 53 0.001345 0
C  56 1.449906 55 119.840674 54 0.090989 0
C  57 1.386187 56 120.166172 55 -0.115482 0
C  52 1.449906 51 119.840674 50 -0.090989 0
C  59 1.386187 52 120.166172 51 0.115482 0
$end

 -----------------------------------------------------------------------
                  END OF GEOMETRY OPTIMIZER USING LIBOPT3               
 -----------------------------------------------------------------------
 Total job time:  26031.81s(wall), 204261.75s(cpu) 
 Mon Nov 28 19:54:00 2022

        *************************************************************
        *                                                           *
        *  Thank you very much for using Q-Chem.  Have a nice day.  *
        *                                                           *
        *************************************************************


 
User input: 2 of 2 
 
                  Welcome to Q-Chem
     A Quantum Leap Into The Future Of Chemistry


 Q-Chem 6.0 (devel), Q-Chem, Inc., Pleasanton, CA (2022)

 E. Epifanovsky,  A. T. B. Gilbert,  Xintian Feng,  Joonho Lee,  Yuezhi Mao,  
 N. Mardirossian,  P. Pokhilko,  A. White,  M. Wormit,  M. P. Coons,  
 A. L. Dempwolff,  Zhengting Gan,  D. Hait,  P. R. Horn,  L. D. Jacobson,  
 I. Kaliman,  J. Kussmann,  A. W. Lange,  Ka Un Lao,  D. S. Levine,  Jie Liu,  
 S. C. McKenzie,  A. F. Morrison,  K. Nanda,  F. Plasser,  D. R. Rehn,  
 M. L. Vidal,  Zhi-Qiang You,  Ying Zhu,  B. Alam,  B. Albrecht,  
 A. Aldossary,  E. Alguire,  J. H. Andersen,  V. Athavale,  D. Barton,  
 K. Begam,  A. Behn,  N. Bellonzi,  Y. A. Bernard,  E. J. Berquist,  
 H. Burton,  A. Carreras,  K. Carter-Fenk,  Romit Chakraborty,  
 Chandrima Chakravarty,  Junhan Chen,  A. D. Chien,  K. D. Closser,  
 V. Cofer-Shabica,  L. Cunha,  S. Dasgupta,  Jia Deng,  M. de Wergifosse,  
 M. Diedenhofen,  Hainam Do,  S. Ehlert,  Po-Tung Fang,  S. Fatehi,  
 Qingguo Feng,  T. Friedhoff,  B. Ganoe,  J. Gayvert,  Qinghui Ge,  
 G. Gidofalvi,  M. Goldey,  J. Gomes,  C. Gonzalez-Espinoza,  S. Gulania,  
 A. Gunina,  J. A. Gyamfi,  M. W. D. Hanson-Heine,  P. H. P. Harbach,  
 A. W. Hauser,  M. F. Herbst,  M. Hernandez Vera,  M. Hodecker,  
 Z. C. Holden,  S. Houck,  Xunkun Huang,  Kerwin Hui,  B. C. Huynh,  
 K. Ikeda,  M. Ivanov,  Hyunjun Ji,  Zuxin Jin,  Hanjie Jiang,  B. Kaduk,  
 S. Kaehler,  R. Kang,  K. Khistyaev,  Jaehoon Kim,  Yongbin Kim,  
 P. Klunzinger,  Z. Koczor-Benda,  Joong Hoon Koh,  D. Kosenkov,  
 Saikiran Kotaru,  L. Koulias,  T. Kowalczyk,  C. M. Krauter,  K. Kue,  
 A. Kunitsa,  T. Kus,  A. Landau,  K. V. Lawler,  D. Lefrancois,  S. Lehtola,  
 Rain Li,  Shaozhi Li,  Yi-Pei Li,  Jiashu Liang,  M. Liebenthal,  
 Hung-Hsuan Lin,  You-Sheng Lin,  Fenglai Liu,  Kuan-Yu Liu,  
 M. Loipersberger,  A. Luenser,  C. Malbon,  A. Manjanath,  P. Manohar,  
 E. Mansoor,  S. F. Manzer,  Shan-Ping Mao,  A. V. Marenich,  T. Markovich,  
 S. Mason,  F. Matz,  S. A. Maurer,  P. F. McLaughlin,  M. F. S. J. Menger,  
 J.-M. Mewes,  S. A. Mewes,  P. Morgante,  Mohammad Mostafanejad,  
 J. W. Mullinax,  K. J. Oosterbaan,  G. Paran,  V. Parravicini,  
 Alexander C. Paul,  Suranjan K. Paul,  F. Pavosevic,  Zheng Pei,  S. Prager,  
 E. I. Proynov,  E. Ramos,  B. Rana,  A. E. Rask,  A. Rettig,  R. M. Richard,  
 F. Rob,  E. Rossomme,  T. Scheele,  M. Scheurer,  M. Schneider,  
 P. E. Schneider,  N. Sergueev,  S. M. Sharada,  Hengyuan Shen,  
 W. Skomorowski,  D. W. Small,  C. J. Stein,  Yingli Su,  Yu-Chuan Su,  
 E. J. Sundstrom,  Zhen Tao,  J. Thirman,  Hung-Yi Tsai,  T. Tsuchimochi,  
 N. M. Tubman,  C. Utku,  S. P. Veccham,  O. Vydrov,  J. Wenzel,  
 Jonathan Wong,  J. Witte,  A. Yamada,  Chou-Hsun Yang,  Kun Yao,  
 S. Yeganeh,  S. R. Yost,  A. Zech,  F. Zeller,  Igor Ying Zhang,  
 Xing Zhang,  Yu Zhang,  D. Zuev,  A. Aspuru-Guzik,  A. T. Bell,  
 N. A. Besley,  K. B. Bravaya,  B. R. Brooks,  D. Casanova,  Jeng-Da Chai,  
 Hsing-Ta Chen,  S. Coriani,  C. J. Cramer,  A. E. DePrince, III,  
 R. A. DiStasio Jr.,  A. Dreuw,  B. D. Dunietz,  T. R. Furlani,  
 W. A. Goddard III,  S. Grimme,  S. Hammes-Schiffer,  T. Head-Gordon,  
 W. J. Hehre,  Chao-Ping Hsu,  T.-C. Jagau,  Yousung Jung,  A. Klamt,  
 Jing Kong,  D. S. Lambrecht,  Xiangyuan Li,  WanZhen Liang,  N. J. Mayhall,  
 C. W. McCurdy,  J. B. Neaton,  T. Neudecker,  C. Ochsenfeld,  
 J. A. Parkhill,  R. Peverati,  V. A. Rassolov,  Haisheng Ren,  Yihan Shao,  
 L. V. Slipchenko,  R. P. Steele,  J. E. Subotnik,  A. J. W. Thom,  
 A. Tkatchenko,  D. G. Truhlar,  T. Van Voorhis,  Fan Wang,  
 T. A. Wesolowski,  K. B. Whaley,  H. L. Woodcock III,  P. M. Zimmerman,  
 S. Faraji,  P. M. W. Gill,  M. Head-Gordon,  J. M. Herbert,  A. I. Krylov

 Contributors to earlier versions of Q-Chem not listed above: 
 R. D. Adamson,  B. Austin,  R. Baer,  J. Baker,  G. J. O. Beran,  
 K. Brandhorst,  S. T. Brown,  E. F. C. Byrd,  Arup K. Chakraborty,  
 G. K. L. Chan,  Chun-Min Chang,  Yunqing Chen,  C.-L. Cheng,  
 Siu Hung Chien,  D. M. Chipman,  D. L. Crittenden,  H. Dachsel,  
 R. J. Doerksen,  A. D. Dutoi,  R. G. Edgar,  J. Fosso-Tande,  
 L. Fusti-Molnar,  D. Ghosh,  A. Ghysels,  A. Golubeva-Zadorozhnaya,  
 J. Gonthier,  M. S. Gordon,  S. R. Gwaltney,  G. Hawkins,  J. E. Herr,  
 A. Heyden,  S. Hirata,  E. G. Hohenstein,  G. Kedziora,  F. J. Keil,  
 C. Kelley,  Jihan Kim,  R. A. King,  R. Z. Khaliullin,  P. P. Korambath,  
 W. Kurlancheek,  A. Laurent,  A. M. Lee,  M. S. Lee,  S. V. Levchenko,  
 Ching Yeh Lin,  D. Liotard,  E. Livshits,  R. C. Lochan,  I. Lotan,  
 L. A. Martinez-Martinez,  P. E. Maslen,  N. Nair,  D. P. O'Neill,  
 D. Neuhauser,  E. Neuscamman,  C. M. Oana,  R. Olivares-Amaya,  R. Olson,  
 T. M. Perrine,  B. Peters,  P. A. Pieniazek,  A. Prociuk,  Y. M. Rhee,  
 J. Ritchie,  M. A. Rohrdanz,  E. Rosta,  N. J. Russ,  H. F. Schaefer III,  
 M. W. Schmidt,  N. E. Schultz,  S. Sharma,  N. Shenvi,  C. D. Sherrill,  
 A. C. Simmonett,  A. Sodt,  T. Stein,  D. Stuck,  K. S. Thanthiriwatte,  
 V. Vanovschi,  L. Vogt,  Tao Wang,  A. Warshel,  M. A. Watson,  
 C. F. Williams,  Q. Wu,  X. Xu,  Jun Yang,  W. Zhang,  Yan Zhao

   Please cite Q-Chem as follows:
  "Software for the frontiers of quantum chemistry:
   An overview of developments in the Q-Chem 5 package"
   J. Chem. Phys. 155, 084801 (2021)
   https://doi.org/10.1063/5.0055522 (open access)

 Q-Chem 6.0.1 for Intel X86 EM64T Linux

 Parts of Q-Chem use Armadillo 9.900.5 (Nocturnal Misbehaviour).
 http://arma.sourceforge.net/

 Q-Chem begins on Mon Nov 28 19:54:00 2022  

 Host: node8.as.kent.edu
0

     Scratch files written to /home/eholder/active_projects/fe@c60/c60/reproduce-attempt/anion-opt/opt//
 Processing $rem in /data/dunietz/eholder/qchem/config/preferences:
 Processing $rem in /home/eholder/.qchemrc:

 Name = B3LYP-D3

 Q-Chem fatal error occurred in module libdft/dftcodes.C, line 1000:

 Unrecognized exchange functional in XCode


 Please submit a crash report at q-chem.com/reporter 
 
 
