                  Welcome to Q-Chem
     A Quantum Leap Into The Future Of Chemistry


 Q-Chem 6.0 (devel), Q-Chem, Inc., Pleasanton, CA (2022)

 E. Epifanovsky,  A. T. B. Gilbert,  Xintian Feng,  Joonho Lee,  Yuezhi Mao,  
 N. Mardirossian,  P. Pokhilko,  A. White,  M. Wormit,  M. P. Coons,  
 A. L. Dempwolff,  Zhengting Gan,  D. Hait,  P. R. Horn,  L. D. Jacobson,  
 I. Kaliman,  J. Kussmann,  A. W. Lange,  Ka Un Lao,  D. S. Levine,  Jie Liu,  
 S. C. McKenzie,  A. F. Morrison,  K. Nanda,  F. Plasser,  D. R. Rehn,  
 M. L. Vidal,  Zhi-Qiang You,  Ying Zhu,  B. Alam,  B. Albrecht,  
 A. Aldossary,  E. Alguire,  J. H. Andersen,  V. Athavale,  D. Barton,  
 K. Begam,  A. Behn,  N. Bellonzi,  Y. A. Bernard,  E. J. Berquist,  
 H. Burton,  A. Carreras,  K. Carter-Fenk,  Romit Chakraborty,  
 Chandrima Chakravarty,  Junhan Chen,  A. D. Chien,  K. D. Closser,  
 V. Cofer-Shabica,  L. Cunha,  S. Dasgupta,  Jia Deng,  M. de Wergifosse,  
 M. Diedenhofen,  Hainam Do,  S. Ehlert,  Po-Tung Fang,  S. Fatehi,  
 Qingguo Feng,  T. Friedhoff,  B. Ganoe,  J. Gayvert,  Qinghui Ge,  
 G. Gidofalvi,  M. Goldey,  J. Gomes,  C. Gonzalez-Espinoza,  S. Gulania,  
 A. Gunina,  J. A. Gyamfi,  M. W. D. Hanson-Heine,  P. H. P. Harbach,  
 A. W. Hauser,  M. F. Herbst,  M. Hernandez Vera,  M. Hodecker,  
 Z. C. Holden,  S. Houck,  Xunkun Huang,  Kerwin Hui,  B. C. Huynh,  
 K. Ikeda,  M. Ivanov,  Hyunjun Ji,  Zuxin Jin,  Hanjie Jiang,  B. Kaduk,  
 S. Kaehler,  R. Kang,  K. Khistyaev,  Jaehoon Kim,  Yongbin Kim,  
 P. Klunzinger,  Z. Koczor-Benda,  Joong Hoon Koh,  D. Kosenkov,  
 Saikiran Kotaru,  L. Koulias,  T. Kowalczyk,  C. M. Krauter,  K. Kue,  
 A. Kunitsa,  T. Kus,  A. Landau,  K. V. Lawler,  D. Lefrancois,  S. Lehtola,  
 Rain Li,  Shaozhi Li,  Yi-Pei Li,  Jiashu Liang,  M. Liebenthal,  
 Hung-Hsuan Lin,  You-Sheng Lin,  Fenglai Liu,  Kuan-Yu Liu,  
 M. Loipersberger,  A. Luenser,  C. Malbon,  A. Manjanath,  P. Manohar,  
 E. Mansoor,  S. F. Manzer,  Shan-Ping Mao,  A. V. Marenich,  T. Markovich,  
 S. Mason,  F. Matz,  S. A. Maurer,  P. F. McLaughlin,  M. F. S. J. Menger,  
 J.-M. Mewes,  S. A. Mewes,  P. Morgante,  Mohammad Mostafanejad,  
 J. W. Mullinax,  K. J. Oosterbaan,  G. Paran,  V. Parravicini,  
 Alexander C. Paul,  Suranjan K. Paul,  F. Pavosevic,  Zheng Pei,  S. Prager,  
 E. I. Proynov,  E. Ramos,  B. Rana,  A. E. Rask,  A. Rettig,  R. M. Richard,  
 F. Rob,  E. Rossomme,  T. Scheele,  M. Scheurer,  M. Schneider,  
 P. E. Schneider,  N. Sergueev,  S. M. Sharada,  Hengyuan Shen,  
 W. Skomorowski,  D. W. Small,  C. J. Stein,  Yingli Su,  Yu-Chuan Su,  
 E. J. Sundstrom,  Zhen Tao,  J. Thirman,  Hung-Yi Tsai,  T. Tsuchimochi,  
 N. M. Tubman,  C. Utku,  S. P. Veccham,  O. Vydrov,  J. Wenzel,  
 Jonathan Wong,  J. Witte,  A. Yamada,  Chou-Hsun Yang,  Kun Yao,  
 S. Yeganeh,  S. R. Yost,  A. Zech,  F. Zeller,  Igor Ying Zhang,  
 Xing Zhang,  Yu Zhang,  D. Zuev,  A. Aspuru-Guzik,  A. T. Bell,  
 N. A. Besley,  K. B. Bravaya,  B. R. Brooks,  D. Casanova,  Jeng-Da Chai,  
 Hsing-Ta Chen,  S. Coriani,  C. J. Cramer,  A. E. DePrince, III,  
 R. A. DiStasio Jr.,  A. Dreuw,  B. D. Dunietz,  T. R. Furlani,  
 W. A. Goddard III,  S. Grimme,  S. Hammes-Schiffer,  T. Head-Gordon,  
 W. J. Hehre,  Chao-Ping Hsu,  T.-C. Jagau,  Yousung Jung,  A. Klamt,  
 Jing Kong,  D. S. Lambrecht,  Xiangyuan Li,  WanZhen Liang,  N. J. Mayhall,  
 C. W. McCurdy,  J. B. Neaton,  T. Neudecker,  C. Ochsenfeld,  
 J. A. Parkhill,  R. Peverati,  V. A. Rassolov,  Haisheng Ren,  Yihan Shao,  
 L. V. Slipchenko,  R. P. Steele,  J. E. Subotnik,  A. J. W. Thom,  
 A. Tkatchenko,  D. G. Truhlar,  T. Van Voorhis,  Fan Wang,  
 T. A. Wesolowski,  K. B. Whaley,  H. L. Woodcock III,  P. M. Zimmerman,  
 S. Faraji,  P. M. W. Gill,  M. Head-Gordon,  J. M. Herbert,  A. I. Krylov

 Contributors to earlier versions of Q-Chem not listed above: 
 R. D. Adamson,  B. Austin,  R. Baer,  J. Baker,  G. J. O. Beran,  
 K. Brandhorst,  S. T. Brown,  E. F. C. Byrd,  Arup K. Chakraborty,  
 G. K. L. Chan,  Chun-Min Chang,  Yunqing Chen,  C.-L. Cheng,  
 Siu Hung Chien,  D. M. Chipman,  D. L. Crittenden,  H. Dachsel,  
 R. J. Doerksen,  A. D. Dutoi,  R. G. Edgar,  J. Fosso-Tande,  
 L. Fusti-Molnar,  D. Ghosh,  A. Ghysels,  A. Golubeva-Zadorozhnaya,  
 J. Gonthier,  M. S. Gordon,  S. R. Gwaltney,  G. Hawkins,  J. E. Herr,  
 A. Heyden,  S. Hirata,  E. G. Hohenstein,  G. Kedziora,  F. J. Keil,  
 C. Kelley,  Jihan Kim,  R. A. King,  R. Z. Khaliullin,  P. P. Korambath,  
 W. Kurlancheek,  A. Laurent,  A. M. Lee,  M. S. Lee,  S. V. Levchenko,  
 Ching Yeh Lin,  D. Liotard,  E. Livshits,  R. C. Lochan,  I. Lotan,  
 L. A. Martinez-Martinez,  P. E. Maslen,  N. Nair,  D. P. O'Neill,  
 D. Neuhauser,  E. Neuscamman,  C. M. Oana,  R. Olivares-Amaya,  R. Olson,  
 T. M. Perrine,  B. Peters,  P. A. Pieniazek,  A. Prociuk,  Y. M. Rhee,  
 J. Ritchie,  M. A. Rohrdanz,  E. Rosta,  N. J. Russ,  H. F. Schaefer III,  
 M. W. Schmidt,  N. E. Schultz,  S. Sharma,  N. Shenvi,  C. D. Sherrill,  
 A. C. Simmonett,  A. Sodt,  T. Stein,  D. Stuck,  K. S. Thanthiriwatte,  
 V. Vanovschi,  L. Vogt,  Tao Wang,  A. Warshel,  M. A. Watson,  
 C. F. Williams,  Q. Wu,  X. Xu,  Jun Yang,  W. Zhang,  Yan Zhao

   Please cite Q-Chem as follows:
  "Software for the frontiers of quantum chemistry:
   An overview of developments in the Q-Chem 5 package"
   J. Chem. Phys. 155, 084801 (2021)
   https://doi.org/10.1063/5.0055522 (open access)

 Q-Chem 6.0.1 for Intel X86 EM64T Linux

 Parts of Q-Chem use Armadillo 9.900.5 (Nocturnal Misbehaviour).
 http://arma.sourceforge.net/

 Q-Chem begins on Mon Nov 28 12:43:20 2022  

 Host: node1.as.kent.edu
0

     Scratch files written to /home/eholder/active_projects/fe@c60/c60/reproduce-attempt/cation-opt/opt//
 Processing $rem in /data/dunietz/eholder/qchem/config/preferences:
 Processing $rem in /home/eholder/.qchemrc:

 Checking the input file for inconsistencies... 	...done.

--------------------------------------------------------------
User input:
--------------------------------------------------------------
$molecule
read opt.txt
$end

$rem
jobtype = opt
exchange = wB97XD
correlation = none
basis = 6-31G*
iqmol_fchk = true
scf_convergence = 8
max_scf_cycles = 5000
mem_static = 6000
mem_total = 56000
$end


--------------------------------------------------------------
 Atom  12: (  0.2440989517,  3.3650127337,  1.1101962295)
         ->(  0.2440989519,  3.3650127346,  1.1101962352)
 Atom  19: ( -2.9254048422,  1.7634209403, -0.9715125057)
         ->( -2.9254048421,  1.7634209337, -0.9715125096)
 Atom  26: (  1.5038660116,  0.7015174885,  3.1397044521)
         ->(  1.5038660067,  0.7015174907,  3.1397044531)
 Atom  36: ( -0.9607623025,  2.9141395958,  1.7877944486)
         ->( -0.9607622999,  2.9141395970,  1.7877944543)
 Atom  41: ( -2.6457453270, -0.2621639207, -2.3542390525)
         ->( -2.6457453252, -0.2621639173, -2.3542390582)
 Atom  52: ( -0.5636793809,  2.0216496591,  2.8646706825)
         ->( -0.5636793780,  2.0216496656,  2.8646706834)
 Atom  50: (  0.8868927838,  1.9204613762,  2.8524356641)
         ->(  0.8868927786,  1.9204613838,  2.8524356650)
 ----------------------------------------------------------------
             Standard Nuclear Orientation (Angstroms)
    I     Atom           X                Y                Z
 ----------------------------------------------------------------
    1      C       3.4250443907    -0.9336751641    -0.1129221820
    2      C       3.5229072072     0.4490034452     0.0543188856
    3      C      -3.5229072073    -0.4490034449    -0.0543188823
    4      C      -3.4250443926     0.9336751634     0.1129221853
    5      C       0.6963880073     0.3696025948    -3.4632166053
    6      C      -0.6963683089     0.4667577890    -3.4514692453
    7      C       0.6963683115    -0.4667577868     3.4514692460
    8      C      -0.6963880078    -0.3696025932     3.4632166061
    9      C      -0.2440989519    -3.3650127346    -1.1101962352
   10      C      -0.2441028948    -3.5326658944     0.2758915559
   11      C       0.2441028951     3.5326658943    -0.2758915545
   12      C       0.2440989519     3.3650127346     1.1101962352
   13      C       2.9254114844    -1.4809411303    -1.3639150970
   14      C       2.9254048421    -1.7634209337     0.9715125096
   15      C       3.1251666422     1.3413482116    -1.0225467550
   16      C       3.1251599942     1.0588684081     1.3128808520
   17      C      -3.1251599938    -1.0588684091    -1.3128808506
   18      C      -3.1251666422    -1.3413482086     1.0225467556
   19      C      -2.9254048421     1.7634209337    -0.9715125096
   20      C      -2.9254114856     1.4809411335     1.3639150959
   21      C       1.3389934858    -0.8998282581    -3.1636828737
   22      C       1.5038831620     1.4298555960    -2.8818973361
   23      C      -1.5038660067    -0.7015174907    -3.1397044531
   24      C      -1.3389763416     1.6281663629    -2.8579189132
   25      C       1.3389763421    -1.6281663618     2.8579189142
   26      C       1.5038660067     0.7015174907     3.1397044531
   27      C      -1.5038831601    -1.4298555937     2.8818973380
   28      C      -1.3389934887     0.8998282550     3.1636828735
   29      C       0.9607622999    -2.9141395970    -1.7877944543
   30      C      -1.3859011376    -2.7504422297    -1.7680012456
   31      C       0.9607542509    -3.2563490457     1.0414533342
   32      C      -1.3859091903    -3.0926516745     1.0612465388
   33      C       1.3859091895     3.0926516754    -1.0612465408
   34      C      -0.9607542525     3.2563490462    -1.0414533336
   35      C       1.3859011370     2.7504422284     1.7680012422
   36      C      -0.9607622999     2.9141395970     1.7877944543
   37      C       2.5438330688    -0.6241759178    -2.3980111493
   38      C       2.5438200399    -1.1779123632     2.1800554817
   39      C       2.6457583603     0.8159003586    -2.2238275798
   40      C       2.6457453252     0.2621639173     2.3542390582
   41      C      -2.6457453252    -0.2621639173    -2.3542390582
   42      C      -2.6457583618    -0.8159003569     2.2238275786
   43      C      -2.5438200379     1.1779123674    -2.1800554806
   44      C      -2.5438330670     0.6241759167     2.3980111536
   45      C       0.5636793780    -2.0216496656    -2.8646706834
   46      C       0.8869074921     2.5451573412    -2.3122952321
   47      C      -0.8868927786    -1.9204613838    -2.8524356650
   48      C      -0.5636646767     2.6463456301    -2.3000602127
   49      C       0.5636646773    -2.6463456302     2.3000602121
   50      C       0.8868927786     1.9204613838     2.8524356650
   51      C      -0.8869074891    -2.5451573417     2.3122952314
   52      C      -0.5636793780     2.0216496656     2.8646706834
   53      C       2.1177235054    -2.6491530285    -1.0527936476
   54      C      -2.4823680987    -2.3282621523    -1.0139936366
   55      C       2.1177193991    -2.8237657719     0.3908331307
   56      C      -2.4823722097    -2.5028748910     0.4296331380
   57      C       2.4823722120     2.5028748908    -0.4296331385
   58      C      -2.1177194037     2.8237657727    -0.3908331297
   59      C       2.4823680997     2.3282621524     1.0139936337
   60      C      -2.1177235084     2.6491530298     1.0527936438
 ----------------------------------------------------------------
 Molecular Point Group                 Ci    NOp =  2
 Largest Abelian Subgroup              Ci    NOp =  2
 Nuclear Repulsion Energy =        8323.39222572 hartrees
 There are      180 alpha and      179 beta electrons
 Requested basis set is 6-31G(d)
 There are 240 shells and 900 basis functions

 Total QAlloc Memory Limit  56000 MB
 Mega-Array Size      5866 MB
 MEM_STATIC part      6000 MB

 -----------------------------------------------------------------------
                STARTING GEOMETRY OPTIMIZER USING LIBOPT3
                by Peter F. McLaughlin, Yu Zhang, Evgeny Epifanovsky
 -----------------------------------------------------------------------

              Initial Energy and Gradient Calculation
   -- Checking Topology for Ill-Behaving Coordinates --

 -------------------------------------------
   Coordinate       |  Removed | Additions 
 -------------------------------------------
	Bonds                     0          0
	Angles                    0          0
	Torsions                  0          0
	Co-Linear Type5s          0          0
	Co-Linear Type6s          0          0
 -------------------------------------------
     Done Checking Topology
 ----------------------------------------------------------------
             Standard Nuclear Orientation (Angstroms)
    I     Atom           X                Y                Z
 ----------------------------------------------------------------
    1      C       3.4202358717    -0.9526797873    -0.0990838779
    2      C       3.5251531456     0.4319707829     0.0461125624
    3      C      -3.5251531456    -0.4319707831    -0.0461125593
    4      C      -3.4202358735     0.9526797861     0.0990838809
    5      C       0.6969300685     0.3109427906    -3.4688664793
    6      C      -0.6953125639     0.4153218630    -3.4582480818
    7      C       0.6953125665    -0.4153218613     3.4582480823
    8      C      -0.6969300689    -0.3109427896     3.4688664799
    9      C      -0.2615348630    -3.3809660869    -1.0564556402
   10      C      -0.2618590953    -3.5265499365     0.3321235560
   11      C       0.2618590956     3.5265499359    -0.3321235548
   12      C       0.2615348631     3.3809660864     1.0564556401
   13      C       2.9173658192    -1.5172374454    -1.3410632307
   14      C       2.9168195196    -1.7625325362     0.9985621591
   15      C       3.1315203607     1.3090770145    -1.0446918363
   16      C       3.1309740555     1.0637819236     1.2949335540
   17      C      -3.1309740550    -1.0637819251    -1.2949335527
   18      C      -3.1315203606    -1.3090770119     1.0446918367
   19      C      -2.9168195195     1.7625325357    -0.9985621593
   20      C      -2.9173658202     1.5172374481     1.3410632295
   21      C       1.3332218955    -0.9568001593    -3.1493708273
   22      C       1.5099976711     1.3762062644    -2.9047284206
   23      C      -1.5085890784    -0.7437441917    -3.1276968170
   24      C      -1.3318133139     1.5892622315    -2.8830544080
   25      C       1.3318133144    -1.5892622310     2.8830544088
   26      C       1.5085890785     0.7437441912     3.1276968169
   27      C      -1.5099976692    -1.3762062625     2.9047284222
   28      C      -1.3332218984     0.9568001556     3.1493708270
   29      C       0.9453330365    -2.9470324474    -1.7415016520
   30      C      -1.4004648920    -2.7711635245    -1.7236106391
   31      C       0.9446712211    -3.2441945713     1.0928315305
   32      C      -1.4011267111    -3.0683256445     1.1107225393
   33      C       1.4011267104     3.0683256449    -1.1107225415
   34      C      -0.9446712226     3.2441945714    -1.0928315300
   35      C       1.4004648915     2.7711635226     1.7236106355
   36      C      -0.9453330364     2.9470324469     1.7415016519
   37      C       2.5397313308    -0.6751073723    -2.3885423452
   38      C       2.5386604284    -1.1559517736     2.1977530710
   39      C       2.6490039239     0.7670227249    -2.2373185182
   40      C       2.6479330153     0.2861783278     2.3489769048
   41      C      -2.6479330152    -0.2861783283    -2.3489769050
   42      C      -2.6490039252    -0.7670227238     2.2373185168
   43      C      -2.5386604263     1.1559517774    -2.1977530700
   44      C      -2.5397313289     0.6751073708     2.3885423493
   45      C       0.5523586163    -2.0697845687    -2.8323191444
   46      C       0.8988866825     2.5035355681    -2.3527542204
   47      C      -0.8976785325    -1.9610725324    -2.8212599538
   48      C      -0.5511504784     2.6122476116    -2.3416950289
   49      C       0.5511504791    -2.6122476122     2.3416950282
   50      C       0.8976785326     1.9610725319     2.8212599537
   51      C      -0.8988866795    -2.5035355691     2.3527542196
   52      C      -0.5523586163     2.0697845682     2.8323191442
   53      C       2.1038991016    -2.6762493966    -1.0111561784
   54      C      -2.4944958722    -2.3314989971    -0.9760849828
   55      C       2.1035614102    -2.8278766933     0.4350654277
   56      C      -2.4948335682    -2.4831262891     0.4701366196
   57      C       2.4948335706     2.4831262884    -0.4701366202
   58      C      -2.1035614148     2.8278766936    -0.4350654268
   59      C       2.4944958732     2.3314989967     0.9760849798
   60      C      -2.1038991045     2.6762493974     1.0111561745
 ----------------------------------------------------------------
 Molecular Point Group                 Ci    NOp =  2
 Largest Abelian Subgroup              Ci    NOp =  2
 Nuclear Repulsion Energy =        8323.39222524 hartrees
 There are      180 alpha and      179 beta electrons
 Requested basis set is 6-31G(d)
 There are 240 shells and 900 basis functions
 A cutoff of  1.0D-12 yielded  17520 shell pairs
 There are    275070 function pairs
 Smallest overlap matrix eigenvalue = 3.29E-04

 Scale SEOQF with 1.000000e-01/1.000000e-01/1.000000e-01

 Standard Electronic Orientation quadrupole field applied
 Guess from superposition of atomic densities
 Warning:  Energy on first SCF cycle will be non-variational
 SAD guess density has 360.000001 electrons

 -----------------------------------------------------------------------
  General SCF calculation program by
  Eric Jon Sundstrom, Paul Horn, Yuezhi Mao, Dmitri Zuev, Alec White,
  David Stuck, Shaama M.S., Shane Yost, Joonho Lee, David Small,
  Daniel Levine, Susi Lehtola, Hugh Burton, Evgeny Epifanovsky,
  Bang C. Huynh
 -----------------------------------------------------------------------
 Exchange:     0.2220 Hartree-Fock + 1.0000 wB97X-D + LR-HF
 Correlation:  1.0000 wB97X-D
 Using SG-2 standard quadrature grid
 Dispersion:   Grimme D
 using 8 threads for integral computing
 -------------------------------------------------------
 OpenMP Integral computing Module                
 Release: version 1.0, May 2013, Q-Chem Inc. Pittsburgh 
 -------------------------------------------------------
 A unrestricted SCF calculation will be
 performed using DIIS
 SCF converges when DIIS error is below 1.0e-08
 ---------------------------------------
  Cycle       Energy         DIIS error
 ---------------------------------------
    1   -2312.1822912366      1.44e-02  
    2   -2284.9893301517      4.98e-04  
    3   -2285.1207913790      1.94e-04  
    4   -2285.1266826205      1.79e-04  
    5   -2285.1390537040      4.54e-05  
    6   -2285.1399346382      1.25e-05  
    7   -2285.1400629266      4.35e-06  
    8   -2285.1400930665      3.10e-06  
    9   -2285.1401121774      1.50e-06  
   10   -2285.1401213257      1.21e-06  
   11   -2285.1401271891      7.10e-07  
   12   -2285.1401325945      6.75e-07  
   13   -2285.1401379100      6.71e-07  
   14   -2285.1401399204      6.62e-07  
   15   -2285.1401444297      6.63e-07  
   16   -2285.1401550758      6.61e-07  
   17   -2285.1401644228      6.59e-07  
   18   -2285.1401613187      6.58e-07  
   19   -2285.1401516376      6.54e-07  
   20   -2285.1401236119      6.47e-07  
   21   -2285.1401051294      6.45e-07  
   22   -2285.1400905697      6.34e-07  
   23   -2285.1400702753      6.19e-07  
   24   -2285.1400119449      1.27e-06  
   25   -2285.1400078918      1.30e-06  
   26   -2285.1400035013      1.47e-06  
   27   -2285.1400067747      1.40e-06  
   28   -2285.1400070694      1.43e-06  
   29   -2285.1400077267      1.43e-06  
   30   -2285.1400071832      1.54e-06  
   31   -2285.1400066789      1.49e-06  
   32   -2285.1399915068      1.47e-06  
   33   -2285.1399897224      1.27e-06  
   34   -2285.1399968942      1.12e-06  
   35   -2285.1399912066      7.15e-07  
   36   -2285.1399812267      7.58e-07  
   37   -2285.1399878855      8.21e-07  
   38   -2285.1399880042      5.84e-07  
   39   -2285.1399984662      6.13e-07  
   40   -2285.1399943242      5.63e-07  
   41   -2285.1399955451      5.50e-07  
   42   -2285.1399983316      5.40e-07  
   43   -2285.1400106111      5.62e-07  
   44   -2285.1400256772      5.63e-07  
   45   -2285.1400301956      5.70e-07  
   46   -2285.1400202699      5.61e-07  
   47   -2285.1400154333      5.94e-07  
   48   -2285.1400221850      5.65e-07  
   49   -2285.1400220942      6.05e-07  
   50   -2285.1400321563      6.13e-07  
   51   -2285.1400312356      6.62e-07  
   52   -2285.1400306743      6.95e-07  
   53   -2285.1400517544      5.79e-07  
   54   -2285.1400426066      6.69e-07  
   55   -2285.1400459724      6.25e-07  
   56   -2285.1400471460      5.68e-07  
   57   -2285.1400544250      5.94e-07  
   58   -2285.1400746401      5.01e-07  
   59   -2285.1400926263      5.83e-07  
   60   -2285.1400771676      1.06e-06  
   61   -2285.1401098989      1.20e-06  
   62   -2285.1401410912      5.77e-07  
   63   -2285.1401878711      9.84e-07  
   64   -2285.1401938741      5.60e-06  
   65   -2285.1401854597      6.21e-06  
   66   -2285.1401943609      3.16e-06  
   67   -2285.1401963560      5.00e-06  
   68   -2285.1402037294      1.76e-06  
   69   -2285.1402093776      1.20e-06  
   70   -2285.1402116012      1.18e-06  
   71   -2285.1402105793      9.49e-07  
   72   -2285.1402136376      4.28e-07  
   73   -2285.1402143946      5.53e-07  
   74   -2285.1402084705      1.38e-06  
   75   -2285.1402092222      1.11e-06  
   76   -2285.1402097485      3.82e-07  
   77   -2285.1402100011      7.06e-07  
   78   -2285.1402148959      4.89e-07  
   79   -2285.1402142563      3.66e-07  
   80   -2285.1402139800      1.59e-07  
   81   -2285.1402146969      2.08e-07  
   82   -2285.1402145725      8.39e-08  
   83   -2285.1402147805      9.97e-08  
   84   -2285.1402148647      8.76e-08  
   85   -2285.1402149115      7.60e-08  
   86   -2285.1402149729      6.51e-08  
   87   -2285.1402150765      6.13e-08  
   88   -2285.1402151704      5.31e-08  
   89   -2285.1402153855      7.19e-08  
   90   -2285.1402154365      7.91e-08  
   91   -2285.1402155993      4.64e-08  
   92   -2285.1402157840      5.73e-08  
   93   -2285.1402158695      3.49e-08  
   94   -2285.1402159676      3.66e-08  
   95   -2285.1402160595      2.55e-08  
   96   -2285.1402160901      2.24e-08  
   97   -2285.1402161563      1.72e-08  
   98   -2285.1402161864      1.35e-08  
   99   -2285.1402161984      9.06e-09  Convergence criterion met
 ---------------------------------------
 SCF time:   CPU 29881.68s  wall 4969.00s 
<S^2> =          0.766700622
 SCF   energy in the final basis set =    -2285.1402161984
 Total energy in the final basis set =    -2285.1402161984

 --------------------------------------------------------------
             Orbital Energies (a.u.) and Symmetries
 --------------------------------------------------------------

 Alpha MOs, Unrestricted
 -- Occupied --                  
-10.484 -10.484 -10.484 -10.484 -10.477 -10.477 -10.477 -10.477
  1 Au    1 Ag    2 Ag    2 Au    3 Ag    3 Au    4 Au    4 Ag                 
-10.477 -10.477 -10.477 -10.477 -10.472 -10.472 -10.472 -10.472
  5 Ag    5 Au    6 Au    6 Ag    7 Au    7 Ag    8 Ag    8 Au                 
-10.472 -10.472 -10.472 -10.472 -10.472 -10.472 -10.471 -10.471
  9 Au    9 Ag   10 Ag   10 Au   11 Ag   11 Au   12 Au   12 Ag                 
-10.471 -10.471 -10.471 -10.471 -10.471 -10.471 -10.471 -10.471
 13 Au   13 Ag   14 Ag   14 Au   15 Au   15 Ag   16 Ag   16 Au                 
-10.471 -10.471 -10.471 -10.471 -10.471 -10.471 -10.471 -10.471
 17 Au   17 Ag   18 Ag   18 Au   19 Au   19 Ag   20 Ag   20 Au                 
-10.468 -10.468 -10.468 -10.468 -10.467 -10.467 -10.467 -10.467
 21 Ag   21 Au   22 Ag   22 Au   23 Au   23 Ag   24 Au   24 Ag                 
-10.467 -10.467 -10.467 -10.467 -10.467 -10.467 -10.467 -10.467
 25 Au   25 Ag   26 Ag   26 Au   27 Ag   27 Au   28 Au   28 Ag                 
-10.466 -10.466 -10.465 -10.465  -1.198  -1.180  -1.179  -1.175
 29 Ag   29 Au   30 Au   30 Ag   31 Ag   31 Au   32 Au   33 Au                 
 -1.142  -1.142  -1.138  -1.137  -1.137  -1.101  -1.098  -1.097
 32 Ag   33 Ag   34 Ag   35 Ag   36 Ag   34 Au   35 Au   36 Au                 
 -1.067  -1.066  -1.065  -1.064  -1.016  -1.014  -1.014  -1.014
 37 Au   38 Au   39 Au   40 Au   37 Ag   38 Ag   39 Ag   40 Ag                 
 -1.013  -0.997  -0.997  -0.996  -0.995  -0.944  -0.939  -0.937
 41 Ag   42 Ag   43 Ag   44 Ag   45 Ag   41 Au   42 Au   43 Au                 
 -0.937  -0.937  -0.924  -0.923  -0.923  -0.879  -0.879  -0.879
 44 Au   45 Au   46 Au   47 Au   48 Au   49 Au   50 Au   51 Au                 
 -0.844  -0.843  -0.841  -0.840  -0.839  -0.839  -0.838  -0.837
 46 Ag   47 Ag   48 Ag   49 Ag   50 Ag   51 Ag   52 Ag   53 Ag                 
 -0.812  -0.770  -0.769  -0.769  -0.767  -0.744  -0.744  -0.743
 54 Ag   55 Ag   56 Ag   57 Ag   58 Ag   52 Au   53 Au   54 Au                 
 -0.743  -0.742  -0.728  -0.726  -0.725  -0.700  -0.700  -0.699
 55 Au   56 Au   57 Au   58 Au   59 Au   60 Au   61 Au   62 Au                 
 -0.697  -0.676  -0.674  -0.674  -0.673  -0.673  -0.672  -0.669
 59 Ag   63 Au   64 Au   65 Au   66 Au   67 Au   68 Au   69 Au                 
 -0.656  -0.654  -0.652  -0.651  -0.650  -0.639  -0.638  -0.638
 60 Ag   61 Ag   62 Ag   63 Ag   64 Ag   65 Ag   66 Ag   67 Ag                 
 -0.638  -0.628  -0.628  -0.628  -0.627  -0.626  -0.623  -0.623
 68 Ag   69 Ag   70 Ag   71 Ag   72 Ag   73 Ag   74 Ag   75 Ag                 
 -0.623  -0.608  -0.607  -0.606  -0.605  -0.567  -0.564  -0.564
 76 Ag   70 Au   71 Au   72 Au   73 Au   74 Au   77 Ag   78 Ag                 
 -0.563  -0.562  -0.561  -0.560  -0.560  -0.552  -0.551  -0.551
 75 Au   76 Au   79 Ag   80 Ag   81 Ag   77 Au   78 Au   79 Au                 
 -0.548  -0.548  -0.546  -0.545  -0.544  -0.543  -0.474  -0.467
 80 Au   81 Au   82 Au   83 Au   84 Au   85 Au   82 Ag   83 Ag                 
 -0.467  -0.465  -0.462  -0.462  -0.460  -0.460  -0.459  -0.414
 84 Ag   85 Ag   86 Ag   87 Ag   88 Ag   89 Ag   90 Ag   86 Au                 
 -0.406  -0.406  -0.405  -0.405
 87 Au   88 Au   89 Au   90 Au                                                 
 -- Virtual --                   
 -0.190  -0.186  -0.185  -0.138  -0.138  -0.135  -0.091  -0.091
 91 Au   92 Au   93 Au   91 Ag   92 Ag   93 Ag   94 Au   94 Ag                 
 -0.090  -0.088  -0.087  -0.086  -0.084  -0.084  -0.017  -0.017
 95 Au   95 Ag   96 Au   96 Ag   97 Ag   98 Ag   97 Au   98 Au                 
 -0.016  -0.015  -0.014   0.003   0.005   0.006   0.007   0.027
 99 Au  100 Au  101 Au   99 Ag  100 Ag  101 Ag  102 Ag  102 Au                 
  0.030   0.030   0.033   0.050   0.054   0.057   0.080   0.080
103 Au  104 Au  105 Au  103 Ag  104 Ag  105 Ag  106 Au  107 Au                 
  0.081   0.107   0.108   0.108   0.110   0.111   0.136   0.138
108 Au  106 Ag  107 Ag  108 Ag  109 Ag  110 Ag  111 Ag  112 Ag                 
  0.139   0.144   0.144   0.146   0.156   0.156   0.156   0.156
113 Ag  109 Au  110 Au  111 Au  112 Au  113 Au  114 Au  115 Au                 
  0.186   0.187   0.188   0.190   0.191   0.212   0.212   0.212
114 Ag  115 Ag  116 Ag  117 Ag  118 Ag  119 Ag  120 Ag  121 Ag                 
  0.214   0.244   0.245   0.246   0.247   0.248   0.268   0.270
122 Ag  116 Au  117 Au  118 Au  119 Au  120 Au  121 Au  122 Au                 
  0.270   0.287   0.287   0.288   0.320   0.321   0.322   0.342
123 Au  124 Au  125 Au  126 Au  123 Ag  124 Ag  125 Ag  127 Au                 
  0.343   0.344   0.344   0.345   0.399   0.402   0.402   0.403
128 Au  129 Au  130 Au  131 Au  126 Ag  127 Ag  128 Ag  129 Ag                 
  0.423   0.424   0.426   0.426   0.427   0.427   0.428   0.428
130 Ag  132 Au  133 Au  134 Au  131 Ag  132 Ag  135 Au  133 Ag                 
  0.429   0.429   0.430   0.431   0.432   0.432   0.439   0.441
134 Ag  135 Ag  136 Ag  137 Ag  138 Ag  139 Ag  136 Au  137 Au                 
  0.444   0.462   0.463   0.464   0.465   0.465   0.468   0.469
138 Au  140 Ag  139 Au  141 Ag  142 Ag  140 Au  141 Au  143 Ag                 
  0.471   0.473   0.474   0.475   0.486   0.488   0.488   0.489
144 Ag  145 Ag  146 Ag  147 Ag  148 Ag  149 Ag  150 Ag  151 Ag                 
  0.494   0.495   0.495   0.496   0.502   0.503   0.504   0.504
142 Au  143 Au  144 Au  145 Au  146 Au  147 Au  148 Au  149 Au                 
  0.505   0.505   0.506   0.507   0.511   0.518   0.520   0.520
150 Au  151 Au  152 Au  153 Au  152 Ag  153 Ag  154 Ag  155 Ag                 
  0.521   0.521   0.522   0.522   0.523   0.524   0.525   0.525
156 Ag  157 Ag  158 Ag  159 Ag  160 Ag  161 Ag  154 Au  155 Au                 
  0.526   0.526   0.528   0.529   0.530   0.531   0.531   0.532
156 Au  157 Au  158 Au  162 Ag  159 Au  163 Ag  160 Au  161 Au                 
  0.533   0.535   0.535   0.540   0.540   0.541   0.588   0.591
164 Ag  165 Ag  166 Ag  162 Au  163 Au  164 Au  165 Au  166 Au                 
  0.593   0.593   0.593   0.593   0.594   0.596   0.597   0.598
167 Ag  167 Au  168 Au  169 Au  168 Ag  169 Ag  170 Ag  171 Ag                 
  0.603   0.604   0.604   0.605   0.606   0.606   0.607   0.618
170 Au  171 Au  172 Au  173 Au  172 Ag  173 Ag  174 Ag  175 Ag                 
  0.619   0.621   0.621   0.621   0.621   0.623   0.623   0.625
176 Ag  177 Ag  178 Ag  179 Ag  180 Ag  174 Au  181 Ag  175 Au                 
  0.626   0.627   0.631   0.631   0.632   0.632   0.633   0.642
176 Au  177 Au  178 Au  179 Au  180 Au  181 Au  182 Au  183 Au                 
  0.643   0.643   0.650   0.652   0.653   0.660   0.661   0.661
184 Au  185 Au  182 Ag  183 Ag  184 Ag  186 Au  187 Au  188 Au                 
  0.663   0.664   0.665   0.666   0.666   0.667   0.668   0.669
189 Au  190 Au  191 Au  192 Au  185 Ag  186 Ag  187 Ag  193 Au                 
  0.669   0.682   0.685   0.687   0.707   0.709   0.710   0.713
188 Ag  189 Ag  190 Ag  191 Ag  194 Au  195 Au  196 Au  192 Ag                 
  0.714   0.715   0.716   0.716   0.735   0.736   0.737   0.737
193 Ag  194 Ag  195 Ag  196 Ag  197 Au  198 Au  199 Au  200 Au                 
  0.744   0.744   0.746   0.747   0.747   0.772   0.772   0.772
197 Ag  198 Ag  199 Ag  200 Ag  201 Ag  201 Au  202 Ag  203 Ag                 
  0.772   0.772   0.773   0.774   0.774   0.775   0.776   0.776
202 Au  203 Au  204 Ag  205 Ag  204 Au  205 Au  206 Ag  207 Ag                 
  0.777   0.778   0.778   0.792   0.793   0.793   0.822   0.823
208 Ag  209 Ag  210 Ag  206 Au  207 Au  208 Au  209 Au  210 Au                 
  0.824   0.865   0.866   0.866   0.867   0.880   0.880   0.880
211 Au  212 Au  213 Au  214 Au  215 Au  211 Ag  212 Ag  213 Ag                 
  0.881   0.881   0.902   0.902   0.902   0.966   0.969   0.970
214 Ag  215 Ag  216 Au  217 Au  218 Au  216 Ag  217 Ag  218 Ag                 
  0.970   0.970   0.972   0.977   0.978   0.978   0.988   0.989
219 Au  220 Au  221 Au  219 Ag  220 Ag  221 Ag  222 Ag  223 Ag                 
  0.989   0.989   0.998   0.998   0.999   0.999   1.002   1.002
224 Ag  225 Ag  226 Ag  227 Ag  228 Ag  229 Ag  230 Ag  231 Ag                 
  1.015   1.015   1.016   1.017   1.018   1.032   1.034   1.034
222 Au  223 Au  224 Au  225 Au  226 Au  227 Au  228 Au  229 Au                 
  1.036   1.041   1.042   1.043   1.043   1.044   1.096   1.096
230 Au  231 Au  232 Au  233 Au  234 Au  235 Au  236 Au  237 Au                 
  1.097   1.099   1.100   1.100   1.105   1.106   1.107   1.108
238 Au  232 Ag  233 Ag  234 Ag  235 Ag  236 Ag  237 Ag  238 Ag                 
  1.108   1.111   1.112   1.113   1.113   1.121   1.122   1.123
239 Ag  240 Ag  241 Ag  242 Ag  243 Ag  239 Au  240 Au  241 Au                 
  1.133   1.134   1.135   1.155   1.156   1.156   1.157   1.203
244 Ag  245 Ag  246 Ag  247 Ag  248 Ag  249 Ag  250 Ag  242 Au                 
  1.204   1.204   1.205   1.205   1.205   1.206   1.206   1.207
243 Au  244 Au  245 Au  246 Au  247 Au  248 Au  249 Au  250 Au                 
  1.221   1.221   1.222   1.222   1.222   1.258   1.261   1.262
251 Au  252 Au  253 Au  254 Au  255 Au  256 Au  257 Au  258 Au                 
  1.262   1.262   1.306   1.308   1.309   1.310   1.311   1.338
259 Au  260 Au  251 Ag  252 Ag  253 Ag  254 Ag  255 Ag  256 Ag                 
  1.339   1.340   1.350   1.351   1.351   1.397   1.398   1.398
257 Ag  258 Ag  259 Ag  260 Ag  261 Ag  261 Au  262 Au  263 Au                 
  1.400   1.401   1.402   1.403   1.407   1.408   1.409   1.410
262 Ag  263 Ag  264 Ag  265 Ag  266 Ag  267 Ag  268 Ag  269 Ag                 
  1.410   1.459   1.459   1.459   1.476   1.477   1.478   1.478
270 Ag  264 Au  265 Au  266 Au  271 Ag  272 Ag  273 Ag  274 Ag                 
  1.486   1.487   1.487   1.488   1.496   1.513   1.514   1.514
267 Au  268 Au  269 Au  270 Au  271 Au  272 Au  273 Au  274 Au                 
  1.516   1.516   1.573   1.573   1.575   1.597   1.599   1.603
275 Au  276 Au  275 Ag  276 Ag  277 Ag  277 Au  278 Au  279 Au                 
  1.608   1.609   1.610   1.611   1.636   1.638   1.639   1.652
280 Au  281 Au  282 Au  283 Au  284 Au  285 Au  286 Au  278 Ag                 
  1.655   1.655   1.655   1.656   1.657   1.658   1.658   1.658
279 Ag  280 Ag  281 Ag  282 Ag  283 Ag  284 Ag  285 Ag  286 Ag                 
  1.659   1.678   1.680   1.681   1.681   1.681   1.682   1.683
287 Ag  287 Au  288 Au  288 Ag  289 Ag  290 Ag  291 Ag  289 Au                 
  1.690   1.691   1.694   1.694   1.694   1.708   1.710   1.710
292 Ag  293 Ag  294 Ag  295 Ag  296 Ag  290 Au  291 Au  292 Au                 
  1.711   1.712   1.745   1.748   1.749   1.750   1.751   1.751
293 Au  294 Au  297 Ag  298 Ag  299 Ag  295 Au  296 Au  300 Ag                 
  1.751   1.752   1.753   1.773   1.774   1.774   1.817   1.818
301 Ag  297 Au  298 Au  299 Au  300 Au  301 Au  302 Au  303 Au                 
  1.819   1.820   1.841   1.842   1.842   1.843   1.844   1.870
304 Au  305 Au  302 Ag  303 Ag  304 Ag  305 Ag  306 Ag  306 Au                 
  1.871   1.871   1.896   1.896   1.897   1.916   1.916   1.918
307 Au  308 Au  309 Au  310 Au  311 Au  307 Ag  308 Ag  309 Ag                 
  1.925   1.926   1.927   1.927   1.927   1.939   1.939   1.940
310 Ag  311 Ag  312 Ag  313 Ag  314 Ag  312 Au  313 Au  314 Au                 
  1.941   1.941   1.943   1.943   1.943   1.944   1.944   1.946
315 Au  316 Au  315 Ag  316 Ag  317 Au  317 Ag  318 Ag  318 Au                 
  1.947   1.948   1.948   1.949   1.949   1.960   1.963   1.964
319 Au  320 Au  321 Au  322 Au  323 Au  319 Ag  320 Ag  321 Ag                 
  1.978   1.979   1.980   1.980   1.984   1.984   1.985   1.986
322 Ag  323 Ag  324 Ag  325 Ag  326 Ag  327 Ag  328 Ag  329 Ag                 
  1.987   2.025   2.027   2.028   2.029   2.029   2.030   2.030
330 Ag  324 Au  325 Au  326 Au  327 Au  328 Au  329 Au  330 Au                 
  2.031   2.081   2.081   2.083   2.123   2.124   2.124   2.124
331 Au  331 Ag  332 Ag  333 Ag  332 Au  333 Au  334 Au  335 Au                 
  2.125   2.168   2.168   2.169   2.169   2.170   2.171   2.171
336 Au  334 Ag  337 Au  335 Ag  336 Ag  337 Ag  338 Ag  338 Au                 
  2.172   2.212   2.213   2.213   2.214   2.215   2.243   2.243
339 Au  339 Ag  340 Ag  341 Ag  342 Ag  343 Ag  344 Ag  345 Ag                 
  2.244   2.244   2.247   2.247   2.249   2.249   2.261   2.262
346 Ag  347 Ag  340 Au  341 Au  342 Au  343 Au  348 Ag  344 Au                 
  2.262   2.263   2.265   2.266   2.266   2.266   2.314   2.315
349 Ag  350 Ag  345 Au  346 Au  347 Au  348 Au  349 Au  350 Au                 
  2.315   2.316   2.316   2.383   2.383   2.385   2.392   2.393
351 Au  352 Au  353 Au  354 Au  355 Au  356 Au  351 Ag  352 Ag                 
  2.393   2.394   2.400   2.402   2.402   2.404   2.405   2.407
353 Ag  354 Ag  357 Au  358 Au  359 Au  360 Au  355 Ag  356 Ag                 
  2.408   2.432   2.434   2.435   2.435   2.436   2.437   2.438
357 Ag  361 Au  362 Au  358 Ag  363 Au  359 Ag  360 Ag  361 Ag                 
  2.439   2.473   2.474   2.476   2.505   2.506   2.506   2.540
362 Ag  364 Au  365 Au  366 Au  363 Ag  364 Ag  365 Ag  366 Ag                 
  2.541   2.544   2.544   2.545   2.547   2.547   2.548   2.548
367 Ag  368 Ag  369 Ag  370 Ag  367 Au  368 Au  369 Au  370 Au                 
  2.548   2.572   2.572   2.573   2.582   2.584   2.585   2.585
371 Au  371 Ag  372 Ag  373 Ag  374 Ag  375 Ag  376 Ag  377 Ag                 
  2.585   2.595   2.597   2.598   2.616   2.616   2.618   2.618
378 Ag  372 Au  373 Au  374 Au  375 Au  376 Au  377 Au  378 Au                 
  2.618   2.660   2.660   2.661   2.661   2.666   2.667   2.668
379 Au  380 Au  381 Au  382 Au  383 Au  379 Ag  380 Ag  381 Ag                 
  2.669   2.687   2.688   2.689   2.705   2.707   2.707   2.708
382 Ag  383 Ag  384 Ag  385 Ag  386 Ag  387 Ag  388 Ag  389 Ag                 
  2.758   2.758   2.759   2.759   2.759   2.782   2.782   2.785
384 Au  385 Au  386 Au  387 Au  388 Au  389 Au  390 Au  391 Au                 
  2.793   2.794   2.796   2.797   2.797   2.804   2.806   2.806
390 Ag  391 Ag  392 Ag  393 Ag  394 Ag  395 Ag  396 Ag  397 Ag                 
  2.816   2.816   2.816   2.817   2.818   2.833   2.834   2.837
392 Au  393 Au  394 Au  395 Au  396 Au  398 Ag  399 Ag  400 Ag                 
  2.866   2.869   2.869   2.872   2.899   2.917   2.917   2.918
397 Au  398 Au  399 Au  400 Au  401 Au  402 Au  403 Au  404 Au                 
  2.919   2.920   2.956   2.958   2.959   2.960   2.967   2.968
405 Au  406 Au  401 Ag  402 Ag  403 Ag  404 Ag  405 Ag  406 Ag                 
  2.968   3.042   3.045   3.045   3.048   3.071   3.073   3.074
407 Ag  407 Au  408 Au  409 Au  410 Au  408 Ag  409 Ag  410 Ag                 
  3.074   3.167   3.169   3.171   3.222   3.223   3.226   3.227
411 Ag  412 Ag  413 Ag  414 Ag  411 Au  412 Au  413 Au  414 Au                 
  3.227   3.343   3.346   3.346   3.349   3.433   3.435   3.438
415 Au  416 Au  417 Au  418 Au  419 Au  415 Ag  416 Ag  417 Ag                 
  3.488   3.491   3.492   3.582   3.998   4.006   4.008   4.012
418 Ag  419 Ag  420 Ag  420 Au  421 Ag  421 Au  422 Au  423 Au                 
  4.027   4.029   4.032   4.033   4.033   4.076   4.079   4.080
422 Ag  423 Ag  424 Ag  425 Ag  426 Ag  424 Au  425 Au  426 Au                 
  4.106   4.107   4.108   4.109   4.171   4.172   4.174   4.174
427 Au  428 Au  429 Au  430 Au  427 Ag  428 Ag  429 Ag  430 Ag                 
  4.175   4.223   4.224   4.224   4.225   4.306   4.309   4.310
431 Ag  432 Ag  433 Ag  434 Ag  435 Ag  431 Au  432 Au  433 Au                 
  4.350   4.355   4.356   4.356   4.356   4.471   4.472   4.474
434 Au  435 Au  436 Au  437 Au  438 Au  439 Au  440 Au  441 Au                 
  4.544   4.544   4.545   4.622   4.622   4.626   4.626   4.627
436 Ag  437 Ag  438 Ag  439 Ag  440 Ag  441 Ag  442 Ag  443 Ag                 
  4.784   4.786   4.787   4.788   4.884   4.884   4.885   4.886
444 Ag  445 Ag  446 Ag  447 Ag  442 Au  443 Au  444 Au  445 Au                 
  4.887   5.087   5.091   5.091   5.094   5.238   5.241   5.243
446 Au  447 Au  448 Au  449 Au  450 Au  448 Ag  449 Ag  450 Ag                 

 Beta MOs, Unrestricted
 -- Occupied --                  
-10.483 -10.483 -10.482 -10.482 -10.476 -10.476 -10.476 -10.476
  1 Ag    1 Au    2 Au    2 Ag    3 Au    3 Ag    4 Ag    4 Au                 
-10.476 -10.476 -10.476 -10.476 -10.472 -10.472 -10.472 -10.472
  5 Au    5 Ag    6 Au    6 Ag    7 Au    7 Ag    8 Ag    8 Au                 
-10.472 -10.472 -10.472 -10.472 -10.471 -10.471 -10.471 -10.471
  9 Au    9 Ag   10 Ag   10 Au   11 Ag   11 Au   12 Au   12 Ag                 
-10.471 -10.471 -10.471 -10.471 -10.471 -10.471 -10.471 -10.471
 13 Au   13 Ag   14 Au   14 Ag   15 Au   15 Ag   16 Ag   16 Au                 
-10.471 -10.471 -10.471 -10.471 -10.471 -10.471 -10.471 -10.471
 17 Ag   17 Au   18 Au   18 Ag   19 Au   19 Ag   20 Ag   20 Au                 
-10.468 -10.468 -10.468 -10.468 -10.467 -10.467 -10.467 -10.467
 21 Ag   21 Au   22 Ag   22 Au   23 Ag   23 Au   24 Au   24 Ag                 
-10.467 -10.467 -10.467 -10.467 -10.467 -10.467 -10.467 -10.467
 25 Au   25 Ag   26 Ag   26 Au   27 Ag   27 Au   28 Au   28 Ag                 
-10.466 -10.466 -10.465 -10.465  -1.197  -1.179  -1.177  -1.174
 29 Ag   29 Au   30 Au   30 Ag   31 Ag   31 Au   32 Au   33 Au                 
 -1.140  -1.140  -1.137  -1.137  -1.137  -1.099  -1.097  -1.096
 32 Ag   33 Ag   34 Ag   35 Ag   36 Ag   34 Au   35 Au   36 Au                 
 -1.066  -1.065  -1.064  -1.063  -1.013  -1.013  -1.013  -1.013
 37 Au   38 Au   39 Au   40 Au   37 Ag   38 Ag   39 Ag   40 Ag                 
 -1.012  -0.995  -0.995  -0.995  -0.995  -0.939  -0.938  -0.936
 41 Ag   42 Ag   43 Ag   44 Ag   45 Ag   41 Au   42 Au   43 Au                 
 -0.936  -0.936  -0.923  -0.923  -0.922  -0.879  -0.878  -0.878
 44 Au   45 Au   46 Au   47 Au   48 Au   49 Au   50 Au   51 Au                 
 -0.842  -0.841  -0.840  -0.839  -0.839  -0.838  -0.837  -0.836
 46 Ag   47 Ag   48 Ag   49 Ag   50 Ag   51 Ag   52 Ag   53 Ag                 
 -0.811  -0.770  -0.768  -0.768  -0.767  -0.743  -0.743  -0.743
 54 Ag   55 Ag   56 Ag   57 Ag   58 Ag   52 Au   53 Au   54 Au                 
 -0.742  -0.742  -0.727  -0.726  -0.724  -0.700  -0.699  -0.699
 55 Au   56 Au   57 Au   58 Au   59 Au   60 Au   61 Au   62 Au                 
 -0.694  -0.673  -0.673  -0.673  -0.672  -0.671  -0.670  -0.668
 59 Ag   63 Au   64 Au   65 Au   66 Au   67 Au   68 Au   69 Au                 
 -0.654  -0.653  -0.652  -0.651  -0.650  -0.638  -0.638  -0.637
 60 Ag   61 Ag   62 Ag   63 Ag   64 Ag   65 Ag   66 Ag   67 Ag                 
 -0.637  -0.627  -0.627  -0.625  -0.622  -0.622  -0.622  -0.621
 68 Ag   69 Ag   70 Ag   71 Ag   72 Ag   73 Ag   74 Ag   75 Ag                 
 -0.621  -0.607  -0.606  -0.606  -0.605  -0.563  -0.563  -0.561
 76 Ag   70 Au   71 Au   72 Au   73 Au   77 Ag   78 Ag   74 Au                 
 -0.561  -0.560  -0.560  -0.559  -0.559  -0.551  -0.550  -0.550
 79 Ag   80 Ag   81 Ag   75 Au   76 Au   77 Au   78 Au   79 Au                 
 -0.548  -0.548  -0.541  -0.541  -0.538  -0.538  -0.465  -0.464
 80 Au   81 Au   82 Au   83 Au   84 Au   85 Au   82 Ag   83 Ag                 
 -0.461  -0.459  -0.459  -0.457  -0.456  -0.446  -0.434  -0.404
 84 Ag   85 Ag   86 Ag   87 Ag   88 Ag   89 Ag   90 Ag   86 Au                 
 -0.404  -0.404  -0.403
 87 Au   88 Au   89 Au                                                         
 -- Virtual --                   
 -0.283  -0.187  -0.186  -0.180  -0.135  -0.131  -0.130  -0.087
 90 Au   91 Au   92 Au   93 Au   91 Ag   92 Ag   93 Ag   94 Au                 
 -0.086  -0.086  -0.083  -0.082  -0.082  -0.082  -0.081  -0.013
 95 Au   96 Au   94 Ag   95 Ag   96 Ag   97 Ag   98 Ag   97 Au                 
 -0.013  -0.012  -0.012  -0.012   0.007   0.008   0.008   0.008
 98 Au   99 Au  100 Au  101 Au   99 Ag  100 Ag  101 Ag  102 Ag                 
  0.031   0.032   0.032   0.034   0.055   0.056   0.057   0.080
102 Au  103 Au  104 Au  105 Au  103 Ag  104 Ag  105 Ag  106 Au                 
  0.081   0.081   0.108   0.109   0.109   0.110   0.111   0.137
107 Au  108 Au  106 Ag  107 Ag  108 Ag  109 Ag  110 Ag  111 Ag                 
  0.139   0.140   0.145   0.146   0.146   0.157   0.157   0.157
112 Ag  113 Ag  109 Au  110 Au  111 Au  112 Au  113 Au  114 Au                 
  0.158   0.188   0.188   0.188   0.191   0.191   0.212   0.213
115 Au  114 Ag  115 Ag  116 Ag  117 Ag  118 Ag  119 Ag  120 Ag                 
  0.214   0.215   0.245   0.246   0.246   0.248   0.248   0.269
121 Ag  122 Ag  116 Au  117 Au  118 Au  119 Au  120 Au  121 Au                 
  0.270   0.270   0.287   0.288   0.288   0.321   0.322   0.323
122 Au  123 Au  124 Au  125 Au  126 Au  123 Ag  124 Ag  125 Ag                 
  0.344   0.345   0.345   0.346   0.346   0.400   0.403   0.403
127 Au  128 Au  129 Au  130 Au  131 Au  126 Ag  127 Ag  128 Ag                 
  0.404   0.424   0.426   0.427   0.428   0.428   0.429   0.429
129 Ag  130 Ag  132 Au  133 Au  134 Au  131 Ag  132 Ag  135 Au                 
  0.429   0.430   0.431   0.431   0.432   0.433   0.433   0.441
133 Ag  134 Ag  135 Ag  136 Ag  137 Ag  138 Ag  139 Ag  136 Au                 
  0.442   0.445   0.464   0.464   0.465   0.466   0.466   0.468
137 Au  138 Au  139 Au  140 Ag  141 Ag  140 Au  142 Ag  141 Au                 
  0.471   0.472   0.474   0.475   0.476   0.488   0.489   0.489
143 Ag  144 Ag  145 Ag  146 Ag  147 Ag  148 Ag  149 Ag  150 Ag                 
  0.490   0.495   0.496   0.496   0.497   0.503   0.504   0.505
151 Ag  142 Au  143 Au  144 Au  145 Au  146 Au  147 Au  148 Au                 
  0.505   0.506   0.506   0.507   0.507   0.511   0.520   0.521
149 Au  150 Au  151 Au  152 Au  153 Au  152 Ag  153 Ag  154 Ag                 
  0.521   0.522   0.522   0.522   0.523   0.524   0.524   0.525
155 Ag  156 Ag  157 Ag  158 Ag  159 Ag  160 Ag  161 Ag  154 Au                 
  0.526   0.526   0.528   0.529   0.531   0.531   0.532   0.532
155 Au  156 Au  157 Au  158 Au  159 Au  162 Ag  160 Au  161 Au                 
  0.532   0.534   0.535   0.535   0.541   0.542   0.542   0.591
163 Ag  164 Ag  165 Ag  166 Ag  162 Au  163 Au  164 Au  165 Au                 
  0.592   0.593   0.594   0.594   0.594   0.596   0.596   0.598
166 Au  167 Au  168 Au  169 Au  167 Ag  168 Ag  169 Ag  170 Ag                 
  0.598   0.604   0.605   0.606   0.606   0.607   0.607   0.607
171 Ag  170 Au  171 Au  172 Au  173 Au  172 Ag  173 Ag  174 Ag                 
  0.620   0.620   0.621   0.622   0.622   0.622   0.624   0.625
175 Ag  176 Ag  177 Ag  178 Ag  179 Ag  180 Ag  181 Ag  174 Au                 
  0.626   0.626   0.628   0.632   0.632   0.633   0.633   0.634
175 Au  176 Au  177 Au  178 Au  179 Au  180 Au  181 Au  182 Au                 
  0.643   0.643   0.644   0.652   0.653   0.653   0.661   0.661
183 Au  184 Au  185 Au  182 Ag  183 Ag  184 Ag  186 Au  187 Au                 
  0.662   0.664   0.665   0.665   0.667   0.668   0.669   0.669
188 Au  189 Au  190 Au  191 Au  192 Au  185 Ag  186 Ag  187 Ag                 
  0.669   0.670   0.684   0.686   0.687   0.709   0.710   0.711
193 Au  188 Ag  189 Ag  190 Ag  191 Ag  194 Au  195 Au  196 Au                 
  0.714   0.714   0.716   0.716   0.716   0.736   0.737   0.737
192 Ag  193 Ag  194 Ag  195 Ag  196 Ag  197 Au  198 Au  199 Au                 
  0.738   0.745   0.746   0.746   0.747   0.748   0.772   0.773
200 Au  197 Ag  198 Ag  199 Ag  200 Ag  201 Ag  201 Au  202 Ag                 
  0.773   0.773   0.773   0.774   0.774   0.775   0.775   0.776
203 Ag  202 Au  203 Au  204 Ag  205 Ag  204 Au  205 Au  206 Ag                 
  0.777   0.778   0.778   0.779   0.793   0.794   0.794   0.824
207 Ag  208 Ag  209 Ag  210 Ag  206 Au  207 Au  208 Au  209 Au                 
  0.824   0.825   0.866   0.867   0.867   0.867   0.881   0.881
210 Au  211 Au  212 Au  213 Au  214 Au  215 Au  211 Ag  212 Ag                 
  0.881   0.881   0.882   0.902   0.902   0.903   0.967   0.969
213 Ag  214 Ag  215 Ag  216 Au  217 Au  218 Au  216 Ag  217 Ag                 
  0.970   0.970   0.971   0.972   0.978   0.978   0.978   0.989
218 Ag  219 Au  220 Au  221 Au  219 Ag  220 Ag  221 Ag  222 Ag                 
  0.990   0.990   0.990   0.999   0.999   0.999   1.000   1.002
223 Ag  224 Ag  225 Ag  226 Ag  227 Ag  228 Ag  229 Ag  230 Ag                 
  1.002   1.015   1.016   1.016   1.018   1.018   1.033   1.034
231 Ag  222 Au  223 Au  224 Au  225 Au  226 Au  227 Au  228 Au                 
  1.034   1.036   1.041   1.042   1.043   1.044   1.044   1.097
229 Au  230 Au  231 Au  232 Au  233 Au  234 Au  235 Au  236 Au                 
  1.097   1.097   1.099   1.100   1.100   1.105   1.106   1.107
237 Au  238 Au  232 Ag  233 Ag  234 Ag  235 Ag  236 Ag  237 Ag                 
  1.108   1.108   1.112   1.113   1.113   1.114   1.122   1.123
238 Ag  239 Ag  240 Ag  241 Ag  242 Ag  243 Ag  239 Au  240 Au                 
  1.123   1.134   1.134   1.135   1.155   1.157   1.157   1.158
241 Au  244 Ag  245 Ag  246 Ag  247 Ag  248 Ag  249 Ag  250 Ag                 
  1.204   1.204   1.205   1.206   1.206   1.206   1.206   1.207
242 Au  243 Au  244 Au  245 Au  246 Au  247 Au  248 Au  249 Au                 
  1.207   1.221   1.221   1.222   1.222   1.222   1.261   1.261
250 Au  251 Au  252 Au  253 Au  254 Au  255 Au  256 Au  257 Au                 
  1.262   1.262   1.263   1.309   1.309   1.310   1.311   1.311
258 Au  259 Au  260 Au  251 Ag  252 Ag  253 Ag  254 Ag  255 Ag                 
  1.338   1.339   1.341   1.350   1.351   1.351   1.398   1.399
256 Ag  257 Ag  258 Ag  259 Ag  260 Ag  261 Ag  261 Au  262 Au                 
  1.399   1.401   1.402   1.402   1.403   1.408   1.409   1.410
263 Au  262 Ag  263 Ag  264 Ag  265 Ag  266 Ag  267 Ag  268 Ag                 
  1.410   1.411   1.460   1.460   1.460   1.478   1.478   1.478
269 Ag  270 Ag  264 Au  265 Au  266 Au  271 Ag  272 Ag  273 Ag                 
  1.480   1.487   1.487   1.487   1.488   1.496   1.514   1.515
274 Ag  267 Au  268 Au  269 Au  270 Au  271 Au  272 Au  273 Au                 
  1.515   1.516   1.517   1.574   1.574   1.575   1.600   1.601
274 Au  275 Au  276 Au  275 Ag  276 Ag  277 Ag  277 Au  278 Au                 
  1.603   1.610   1.610   1.611   1.611   1.636   1.639   1.640
279 Au  280 Au  281 Au  282 Au  283 Au  284 Au  285 Au  286 Au                 
  1.653   1.656   1.656   1.656   1.657   1.658   1.658   1.658
278 Ag  279 Ag  280 Ag  281 Ag  282 Ag  283 Ag  284 Ag  285 Ag                 
  1.659   1.660   1.679   1.681   1.682   1.682   1.682   1.682
286 Ag  287 Ag  287 Au  288 Au  288 Ag  289 Ag  290 Ag  291 Ag                 
  1.684   1.693   1.693   1.695   1.695   1.695   1.710   1.710
289 Au  292 Ag  293 Ag  294 Ag  295 Ag  296 Ag  290 Au  291 Au                 
  1.711   1.712   1.712   1.747   1.748   1.750   1.751   1.751
292 Au  293 Au  294 Au  297 Ag  298 Ag  299 Ag  295 Au  300 Ag                 
  1.751   1.752   1.752   1.753   1.774   1.775   1.775   1.818
301 Ag  296 Au  297 Au  298 Au  299 Au  300 Au  301 Au  302 Au                 
  1.819   1.820   1.821   1.843   1.843   1.843   1.844   1.844
303 Au  304 Au  305 Au  302 Ag  303 Ag  304 Ag  305 Ag  306 Ag                 
  1.872   1.872   1.872   1.897   1.897   1.898   1.917   1.917
306 Au  307 Au  308 Au  309 Au  310 Au  311 Au  307 Ag  308 Ag                 
  1.919   1.927   1.927   1.928   1.928   1.928   1.940   1.940
309 Ag  310 Ag  311 Ag  312 Ag  313 Ag  314 Ag  312 Au  313 Au                 
  1.941   1.941   1.942   1.944   1.945   1.945   1.945   1.945
314 Au  315 Au  316 Au  315 Ag  316 Ag  317 Ag  317 Au  318 Ag                 
  1.947   1.948   1.949   1.949   1.950   1.950   1.962   1.964
318 Au  319 Au  320 Au  321 Au  322 Au  323 Au  319 Ag  320 Ag                 
  1.965   1.979   1.979   1.980   1.980   1.985   1.986   1.986
321 Ag  322 Ag  323 Ag  324 Ag  325 Ag  326 Ag  327 Ag  328 Ag                 
  1.987   1.987   2.027   2.028   2.029   2.030   2.030   2.031
329 Ag  330 Ag  324 Au  325 Au  326 Au  327 Au  328 Au  329 Au                 
  2.031   2.031   2.082   2.082   2.083   2.124   2.125   2.125
330 Au  331 Au  331 Ag  332 Ag  333 Ag  332 Au  333 Au  334 Au                 
  2.125   2.125   2.170   2.170   2.170   2.170   2.171   2.171
335 Au  336 Au  334 Ag  335 Ag  336 Ag  337 Au  337 Ag  338 Ag                 
  2.172   2.172   2.214   2.214   2.214   2.215   2.215   2.244
338 Au  339 Au  339 Ag  340 Ag  341 Ag  342 Ag  343 Ag  344 Ag                 
  2.245   2.245   2.245   2.249   2.249   2.249   2.250   2.262
345 Ag  346 Ag  347 Ag  340 Au  341 Au  342 Au  343 Au  348 Ag                 
  2.263   2.264   2.265   2.266   2.267   2.267   2.267   2.315
349 Ag  350 Ag  344 Au  345 Au  346 Au  347 Au  348 Au  349 Au                 
  2.316   2.316   2.316   2.317   2.384   2.385   2.386   2.393
350 Au  351 Au  352 Au  353 Au  354 Au  355 Au  356 Au  351 Ag                 
  2.394   2.394   2.395   2.402   2.403   2.403   2.404   2.407
352 Ag  353 Ag  354 Ag  357 Au  358 Au  359 Au  360 Au  355 Ag                 
  2.408   2.409   2.434   2.435   2.436   2.436   2.436   2.438
356 Ag  357 Ag  361 Au  362 Au  363 Au  358 Ag  359 Ag  360 Ag                 
  2.439   2.439   2.475   2.475   2.477   2.506   2.507   2.507
361 Ag  362 Ag  364 Au  365 Au  366 Au  363 Ag  364 Ag  365 Ag                 
  2.542   2.543   2.544   2.545   2.545   2.548   2.548   2.548
366 Ag  367 Ag  368 Ag  369 Ag  370 Ag  367 Au  368 Au  369 Au                 
  2.549   2.549   2.572   2.573   2.574   2.583   2.585   2.585
370 Au  371 Au  371 Ag  372 Ag  373 Ag  374 Ag  375 Ag  376 Ag                 
  2.585   2.586   2.596   2.598   2.598   2.617   2.617   2.618
377 Ag  378 Ag  372 Au  373 Au  374 Au  375 Au  376 Au  377 Au                 
  2.619   2.619   2.661   2.661   2.661   2.661   2.668   2.669
378 Au  379 Au  380 Au  381 Au  382 Au  383 Au  379 Ag  380 Ag                 
  2.669   2.670   2.688   2.689   2.690   2.707   2.708   2.708
381 Ag  382 Ag  383 Ag  384 Ag  385 Ag  386 Ag  387 Ag  388 Ag                 
  2.709   2.759   2.759   2.759   2.760   2.760   2.783   2.783
389 Ag  384 Au  385 Au  386 Au  387 Au  388 Au  389 Au  390 Au                 
  2.785   2.794   2.795   2.797   2.797   2.797   2.806   2.806
391 Au  390 Ag  391 Ag  392 Ag  393 Ag  394 Ag  395 Ag  396 Ag                 
  2.807   2.817   2.817   2.817   2.818   2.818   2.834   2.836
397 Ag  392 Au  393 Au  394 Au  395 Au  396 Au  398 Ag  399 Ag                 
  2.838   2.868   2.870   2.870   2.872   2.901   2.918   2.918
400 Ag  397 Au  398 Au  399 Au  400 Au  401 Au  402 Au  403 Au                 
  2.918   2.920   2.920   2.957   2.959   2.959   2.960   2.968
404 Au  405 Au  406 Au  401 Ag  402 Ag  403 Ag  404 Ag  405 Ag                 
  2.969   2.969   3.044   3.046   3.046   3.048   3.072   3.073
406 Ag  407 Ag  407 Au  408 Au  409 Au  410 Au  408 Ag  409 Ag                 
  3.074   3.075   3.168   3.170   3.171   3.223   3.224   3.226
410 Ag  411 Ag  412 Ag  413 Ag  414 Ag  411 Au  412 Au  413 Au                 
  3.227   3.227   3.344   3.346   3.347   3.349   3.434   3.436
414 Au  415 Au  416 Au  417 Au  418 Au  419 Au  415 Ag  416 Ag                 
  3.438   3.490   3.491   3.493   3.582   3.999   4.008   4.009
417 Ag  418 Ag  419 Ag  420 Ag  420 Au  421 Ag  421 Au  422 Au                 
  4.012   4.029   4.030   4.033   4.033   4.034   4.078   4.079
423 Au  422 Ag  423 Ag  424 Ag  425 Ag  426 Ag  424 Au  425 Au                 
  4.081   4.107   4.108   4.109   4.110   4.173   4.173   4.174
426 Au  427 Au  428 Au  429 Au  430 Au  427 Ag  428 Ag  429 Ag                 
  4.175   4.175   4.224   4.225   4.225   4.226   4.308   4.310
430 Ag  431 Ag  432 Ag  433 Ag  434 Ag  435 Ag  431 Au  432 Au                 
  4.310   4.353   4.355   4.357   4.357   4.357   4.473   4.473
433 Au  434 Au  435 Au  436 Au  437 Au  438 Au  439 Au  440 Au                 
  4.475   4.545   4.545   4.546   4.623   4.624   4.627   4.627
441 Au  436 Ag  437 Ag  438 Ag  439 Ag  440 Ag  441 Ag  442 Ag                 
  4.627   4.786   4.787   4.788   4.789   4.885   4.885   4.885
443 Ag  444 Ag  445 Ag  446 Ag  447 Ag  442 Au  443 Au  444 Au                 
  4.886   4.887   5.089   5.092   5.092   5.095   5.240   5.242
445 Au  446 Au  447 Au  448 Au  449 Au  450 Au  448 Ag  449 Ag                 
  5.244
450 Ag                                                                         
 --------------------------------------------------------------

          Ground-State Mulliken Net Atomic Charges

     Atom                 Charge (a.u.)    Spin (a.u.)
  --------------------------------------------------------
      1 C                     0.014673      -0.002773
      2 C                     0.014383      -0.002820
      3 C                     0.014384      -0.002820
      4 C                     0.014672      -0.002773
      5 C                     0.025663       0.099090
      6 C                     0.025940       0.100410
      7 C                     0.025940       0.100410
      8 C                     0.025662       0.099090
      9 C                     0.017576       0.017851
     10 C                     0.017072       0.017337
     11 C                     0.017072       0.017337
     12 C                     0.017576       0.017851
     13 C                     0.014746      -0.003171
     14 C                     0.014049      -0.003426
     15 C                     0.014570      -0.003144
     16 C                     0.014566      -0.003180
     17 C                     0.014566      -0.003180
     18 C                     0.014571      -0.003144
     19 C                     0.014049      -0.003426
     20 C                     0.014746      -0.003171
     21 C                     0.012585      -0.032536
     22 C                     0.012495      -0.032407
     23 C                     0.012366      -0.032648
     24 C                     0.012618      -0.032665
     25 C                     0.012618      -0.032665
     26 C                     0.012366      -0.032648
     27 C                     0.012495      -0.032407
     28 C                     0.012586      -0.032536
     29 C                     0.015329       0.011729
     30 C                     0.015700       0.012073
     31 C                     0.015895       0.012223
     32 C                     0.015804       0.011806
     33 C                     0.015804       0.011806
     34 C                     0.015894       0.012223
     35 C                     0.015700       0.012073
     36 C                     0.015329       0.011729
     37 C                     0.015637       0.005639
     38 C                     0.015867       0.006151
     39 C                     0.015872       0.005653
     40 C                     0.016140       0.005985
     41 C                     0.016140       0.005985
     42 C                     0.015872       0.005653
     43 C                     0.015867       0.006151
     44 C                     0.015636       0.005639
     45 C                     0.020696       0.063759
     46 C                     0.020202       0.063852
     47 C                     0.020257       0.063332
     48 C                     0.020111       0.062890
     49 C                     0.020111       0.062890
     50 C                     0.020257       0.063332
     51 C                     0.020202       0.063852
     52 C                     0.020696       0.063759
     53 C                     0.017183       0.022240
     54 C                     0.017027       0.022057
     55 C                     0.017650       0.022128
     56 C                     0.017328       0.022566
     57 C                     0.017328       0.022566
     58 C                     0.017650       0.022128
     59 C                     0.017027       0.022057
     60 C                     0.017183       0.022240
  --------------------------------------------------------
  Sum of atomic charges =     1.000000
  Sum of spin   charges =     1.000000

 -----------------------------------------------------------------
                    Cartesian Multipole Moments
 -----------------------------------------------------------------
    Charge (ESU x 10^10)
                 4.8032
    Dipole Moment (Debye)
         X      -0.0000      Y      -0.0000      Z      -0.0000
       Tot       0.0000
    Quadrupole Moments (Debye-Ang)
        XX    -299.0181     XY       0.4014     YY    -293.7683
        XZ       0.0427     YZ      -0.3016     ZZ    -290.8833
    Octopole Moments (Debye-Ang^2)
       XXX      -0.0000    XXY      -0.0000    XYY      -0.0000
       YYY       0.0000    XXZ      -0.0000    XYZ       0.0000
       YYZ       0.0000    XZZ      -0.0000    YZZ      -0.0000
       ZZZ      -0.0000
    Hexadecapole Moments (Debye-Ang^3)
      XXXX   -8247.5174   XXXY       4.1213   XXYY   -2731.5068
      XYYY       1.0684   YYYY   -8180.6980   XXXZ       0.4700
      XXYZ       1.9653   XYYZ      -0.4302   YYYZ      -2.5228
      XXZZ   -2750.1821   XYZZ       2.3212   YYZZ   -2718.6154
      XZZZ       0.7709   YZZZ      -5.1535   ZZZZ   -8107.2908
 -----------------------------------------------------------------
 Calculating analytic gradient of the SCF energy
 Gradient of SCF Energy
            1           2           3           4           5           6
    1   0.0023822   0.0028112  -0.0028112  -0.0023822  -0.0155610   0.0154937
    2  -0.0057860   0.0053224  -0.0053224   0.0057860   0.0020711  -0.0002395
    3  -0.0006249   0.0005976  -0.0005976   0.0006249  -0.0093711  -0.0095348
            7           8           9          10          11          12
    1  -0.0154937   0.0155610   0.0000340  -0.0000195   0.0000195  -0.0000340
    2   0.0002395  -0.0020711  -0.0001826  -0.0024128   0.0024128   0.0001826
    3   0.0095348   0.0093711  -0.0121822   0.0117592  -0.0117592   0.0121822
           13          14          15          16          17          18
    1   0.0025151   0.0025418   0.0034417   0.0034587  -0.0034587  -0.0034417
    2  -0.0062077  -0.0051068   0.0050860   0.0056413  -0.0056414  -0.0050860
    3   0.0034865  -0.0047223   0.0047182  -0.0034654   0.0034654  -0.0047182
           19          20          21          22          23          24
    1  -0.0025418  -0.0025151   0.0015070   0.0016833  -0.0014578  -0.0013888
    2   0.0051068   0.0062077  -0.0013783   0.0012997  -0.0012399   0.0014897
    3   0.0047223  -0.0034865  -0.0008518  -0.0005492  -0.0008398  -0.0005624
           25          26          27          28          29          30
    1   0.0013888   0.0014578  -0.0016833  -0.0015070  -0.0014243   0.0003047
    2  -0.0014897   0.0012399  -0.0012997   0.0013783  -0.0055955  -0.0060293
    3   0.0005624   0.0008398   0.0005492   0.0008518   0.0029844   0.0031523
           31          32          33          34          35          36
    1  -0.0014472   0.0003666  -0.0003666   0.0014472  -0.0003047   0.0014243
    2  -0.0053221  -0.0052077   0.0052077   0.0053221   0.0060293   0.0055955
    3  -0.0040928  -0.0040223   0.0040223   0.0040928  -0.0031523  -0.0029844
           37          38          39          40          41          42
    1  -0.0000745  -0.0001172  -0.0001327  -0.0003164   0.0003164   0.0001327
    2   0.0027967   0.0013442  -0.0012830  -0.0028528   0.0028528   0.0012830
    3  -0.0060425   0.0066189  -0.0063804   0.0064404  -0.0064404   0.0063804
           43          44          45          46          47          48
    1   0.0001172   0.0000745  -0.0084159  -0.0082316   0.0081911   0.0086024
    2  -0.0013442  -0.0027967  -0.0001674   0.0026833  -0.0014567   0.0016464
    3  -0.0066189   0.0060425  -0.0075917  -0.0072954  -0.0074452  -0.0072084
           49          50          51          52          53          54
    1  -0.0086024  -0.0081911   0.0082316   0.0084159   0.0032391  -0.0034618
    2  -0.0016464   0.0014567  -0.0026833   0.0001674  -0.0016882  -0.0009712
    3   0.0072084   0.0074452   0.0072954   0.0075917  -0.0037296  -0.0035326
           55          56          57          58          59          60
    1   0.0035666  -0.0033771   0.0033771  -0.0035666   0.0034618  -0.0032391
    2  -0.0025299  -0.0019090   0.0019090   0.0025299   0.0009712   0.0016882
    3   0.0030668   0.0032671  -0.0032671  -0.0030668   0.0035326   0.0037296
 Max gradient component =       1.556E-02
 RMS gradient           =       5.009E-03
 Gradient time:  CPU 38054.75 s  wall 4788.99 s

 *****************************************************
             Starting BFGS Algorithm
 *****************************************************
            LIBOPT3 RUN PARAMETERS

  Geometry Optimization Coordinates :
	Delocalized Natural Internal Coordinates

  Step Length Selection Method :
	Eigenvector Following Algorithm

  Convergence Criteria :
	Max Gradient Component    	3.00000000e-04
	Max Displacement Component	1.20000000e-03
	Absolute Energy Difference	1.00000000e-06

  Initial Hessian :
	Approximate Hessian - Simple Internal Coordinate Scaled

  Type of Verification :
	Verify with final updated Hessian
 *****************************************************

	OPTIMIZATION CYCLE:	1

 Scaling Magnitude of Eigenvalues
 	Minimum: -25.00000000	 Maximum: 25.00000000
 174 Hessian Eigenvalues to form next step
   0.10427589   0.10427589   0.10427589   0.10437382   0.10437655
   0.10437655   0.10437655   0.10455793   0.10455986   0.10455986
   0.10455986   0.10463317   0.10463317   0.10463656   0.10463656
   0.10463656   0.10492430   0.10492430   0.10492430   0.10500262
   0.10500263   0.10500344   0.10500344   0.10500344   0.10562690
   0.10562691   0.10562691   0.10624673   0.10624673   0.10624673
   0.10986334   0.10986334   0.10987431   0.10987431   0.10987431
   0.11206765   0.11206765   0.11206765   0.11207663   0.11207663
   0.11402057   0.11402057   0.11402057   0.11404606   0.12339952
   0.12341785   0.12341786   0.12341786   0.12668801   0.12668801
   0.12668801   0.14271826   0.14544845   0.14544846   0.14544846
   0.14793390   0.14793390   0.14794523   0.14794523   0.14794523
   0.14826117   0.14826117   0.14826117   0.14896606   0.14896606
   0.14897498   0.14897498   0.14897498   0.15141068   0.15141068
   0.15141068   0.15141225   0.15712391   0.15712391   0.15712391
   0.15713681   0.15735845   0.15735846   0.15735846   0.16314499
   0.16314499   0.16314499   0.16316646   0.16316647   0.23923334
   0.23923335   0.23923335   0.23925598   0.24185868   0.24192255
   0.24192255   0.24192255   0.25120087   0.25120088   0.25120088
   0.25120358   0.25120359   0.25958299   0.25958299   0.25958300
   0.27534601   0.27534602   0.27536013   0.27536013   0.27536014
   0.29467004   0.29467005   0.29467006   0.29471007   0.29471008
   0.38275278   0.38275278   0.38275279   0.39406936   0.39406937
   0.39406938   0.45191401   0.45191402   0.45191887   0.45191887
   0.45191887   0.45356422   0.45356422   0.45356422   0.45609731
   0.45609731   0.45609732   0.45609894   0.45609895   0.46701775
   0.46702440   0.46702440   0.46702440   0.46781109   0.46781109
   0.46781109   0.46782704   0.47033414   0.47033414   0.47033414
   0.47695231   0.47695231   0.47695231   0.47696619   0.47696620
   0.49999999   0.49999999   0.49999999   0.49999999   0.49999999
   0.49999999   0.49999999   0.49999999   0.49999999   0.49999999
   0.50000000   0.50000000   0.50000000   0.50000000   0.50000000
   0.50000000   0.50000000   0.50000000   0.50000000   0.50000000
   0.50000000   0.50000000   0.50000000   0.50000000   0.50000000
   0.50000000   0.50000000   0.50000000   0.50000000

 Minimum Search taking a RFO step
 Searching for Lambda that minimizes along all modes
	Value of Lambda   -0.01126850
	Norm  of Stepsize  0.16497911
	RMS   of Stepsize  0.01250703

	Performing Iterative Coordinate Back-Transformation

	  Starting from Previous Position

	  iter:	0	rms: 2.4655039510e-02	maxdev: 7.3627325544e-02
	  iter:	1	rms: 7.2291049090e-05	maxdev: 1.9699583600e-04
	  iter:	2	rms: 1.1789505140e-09	maxdev: 3.7312551288e-09	 Success!

	Finished Iterative Coordinate Back-Transformation
 ----------------------------------------------------------------
             Standard Nuclear Orientation (Angstroms)
    I     Atom           X                Y                Z
 ----------------------------------------------------------------
    1      C       3.4314475354    -0.9287977329    -0.1122070662
    2      C       3.5287536977     0.4433490287     0.0536681903
    3      C      -3.5287536969    -0.4433490284    -0.0536681887
    4      C      -3.4314475354     0.9287977333     0.1122070665
    5      C       0.7010228242     0.3648791475    -3.4243466257
    6      C      -0.7011732270     0.4628944355    -3.4125892099
    7      C       0.7011732259    -0.4628944351     3.4125892103
    8      C      -0.7010228269    -0.3648791483     3.4243466262
    9      C      -0.2428300570    -3.3471974480    -1.0993961143
   10      C      -0.2429038239    -3.5132668503     0.2701481891
   11      C       0.2429038247     3.5132668513    -0.2701481897
   12      C       0.2428300580     3.3471974491     1.0993961130
   13      C       2.9301223029    -1.4737081378    -1.3573082940
   14      C       2.9301547536    -1.7548635997     0.9671438304
   15      C       3.1286815811     1.3319112836    -1.0182113818
   16      C       3.1287298092     1.0513409657     1.3062598329
   17      C      -3.1287298074    -1.0513409664    -1.3062598325
   18      C      -3.1286815812    -1.3319112814     1.0182113835
   19      C      -2.9301547527     1.7548636017    -0.9671438312
   20      C      -2.9301223035     1.4737081386     1.3573082920
   21      C       1.3432304333    -0.8973838681    -3.1350675381
   22      C       1.5072943894     1.4205887783    -2.8549616626
   23      C      -1.5075007758    -0.6982504441    -3.1111421419
   24      C      -1.3435866222     1.6195159424    -2.8310440885
   25      C       1.3435866214    -1.6195159413     2.8310440888
   26      C       1.5075007744     0.6982504430     3.1111421427
   27      C      -1.5072943896    -1.4205887781     2.8549616638
   28      C      -1.3432304357     0.8973838682     3.1350675377
   29      C       0.9632074546    -2.8986069621    -1.7728274752
   30      C      -1.3856439636    -2.7345587624    -1.7535560619
   31      C       0.9630841788    -3.2377154420     1.0312694977
   32      C      -1.3859789865    -3.0740197079     1.0508165505
   33      C       1.3859789868     3.0740197081    -1.0508165503
   34      C      -0.9630841781     3.2377154430    -1.0312694980
   35      C       1.3856439632     2.7345587631     1.7535560622
   36      C      -0.9632074536     2.8986069624     1.7728274741
   37      C       2.5490956715    -0.6238834514    -2.3803812556
   38      C       2.5493355540    -1.1734158993     2.1631729268
   39      C       2.6504545468     0.8105464892    -2.2071527139
   40      C       2.6507961653     0.2611202869     2.3362462450
   41      C      -2.6507961644    -0.2611202881    -2.3362462447
   42      C      -2.6504545481    -0.8105464882     2.2071527150
   43      C      -2.5493355532     1.1734159002    -2.1631729260
   44      C      -2.5490956711     0.6238834519     2.3803812566
   45      C       0.5667487825    -2.0098718060    -2.8379059387
   46      C       0.8878184456     2.5278116233    -2.2895322302
   47      C      -0.8877527416    -1.9080954958    -2.8260067328
   48      C      -0.5668429727     2.6291615900    -2.2775389518
   49      C       0.5668429715    -2.6291615889     2.2775389519
   50      C       0.8877527404     1.9080954947     2.8260067327
   51      C      -0.8878184451    -2.5278116222     2.2895322306
   52      C      -0.5667487827     2.0098718067     2.8379059373
   53      C       2.1191351774    -2.6357139751    -1.0462445395
   54      C      -2.4817975634    -2.3150527877    -1.0079498088
   55      C       2.1188935076    -2.8091742479     0.3885514697
   56      C      -2.4820077488    -2.4883784623     0.4269544469
   57      C       2.4820077510     2.4883784628    -0.4269544456
   58      C      -2.1188935073     2.8091742494    -0.3885514691
   59      C       2.4817975634     2.3150527882     1.0079498093
   60      C      -2.1191351784     2.6357139755     1.0462445383
 ----------------------------------------------------------------
 Molecular Point Group                 Ci    NOp =  2
 Largest Abelian Subgroup              Ci    NOp =  2
 Nuclear Repulsion Energy =        8360.42077079 hartrees
 There are      180 alpha and      179 beta electrons
 Applying Cartesian multipole field
    Component          Value
    ---------          -----
     (2,0,0)        1.00000E-11
     (0,2,0)        2.00000E-11
     (0,0,2)       -3.00000E-11
 Nucleus-field energy     = 1.8734602268e-09 hartrees
 Requested basis set is 6-31G(d)
 There are 240 shells and 900 basis functions
 A cutoff of  1.0D-12 yielded  17776 shell pairs
 There are    279166 function pairs
 Smallest overlap matrix eigenvalue = 3.09E-04
 Guess MOs from SCF MO coefficient file

 -----------------------------------------------------------------------
  General SCF calculation program by
  Eric Jon Sundstrom, Paul Horn, Yuezhi Mao, Dmitri Zuev, Alec White,
  David Stuck, Shaama M.S., Shane Yost, Joonho Lee, David Small,
  Daniel Levine, Susi Lehtola, Hugh Burton, Evgeny Epifanovsky,
  Bang C. Huynh
 -----------------------------------------------------------------------
 Exchange:     0.2220 Hartree-Fock + 1.0000 wB97X-D + LR-HF
 Correlation:  1.0000 wB97X-D
 Using SG-2 standard quadrature grid
 Dispersion:   Grimme D
 A unrestricted SCF calculation will be
 performed using DIIS
 SCF converges when DIIS error is below 1.0e-08
 ---------------------------------------
  Cycle       Energy         DIIS error
 ---------------------------------------
    1   -2285.1397620031      9.53e-05  
    2   -2285.1460655112      2.55e-05  
    3   -2285.1464254432      2.01e-05  
    4   -2285.1465763419      3.29e-06  
    5   -2285.1465847172      1.40e-06  
    6   -2285.1465858011      7.98e-07  
    7   -2285.1465861729      2.70e-07  
    8   -2285.1465862218      1.12e-07  
    9   -2285.1465862450      4.29e-08  
   10   -2285.1465862534      2.89e-08  
   11   -2285.1465862588      1.83e-08  
   12   -2285.1465862620      1.63e-08  
   13   -2285.1465862637      1.42e-08  
   14   -2285.1465862672      1.39e-08  
   15   -2285.1465862726      1.22e-08  
   16   -2285.1465862794      1.17e-08  
   17   -2285.1465862849      9.71e-09  Convergence criterion met
 ---------------------------------------
 SCF time:   CPU 6877.58s  wall 946.00s 
<S^2> =          0.766446598
 SCF   energy in the final basis set =    -2285.1465862849
 Total energy in the final basis set =    -2285.1465862849

 --------------------------------------------------------------
             Orbital Energies (a.u.) and Symmetries
 --------------------------------------------------------------

 Alpha MOs, Unrestricted
 -- Occupied --                  
-10.482 -10.482 -10.481 -10.481 -10.474 -10.474 -10.474 -10.474
  1 Au    1 Ag    2 Ag    2 Au    3 Ag    3 Au    4 Au    4 Ag                 
-10.474 -10.474 -10.474 -10.474 -10.470 -10.470 -10.470 -10.470
  5 Au    5 Ag    6 Ag    6 Au    7 Au    7 Ag    8 Ag    8 Au                 
-10.470 -10.470 -10.469 -10.469 -10.469 -10.469 -10.469 -10.469
  9 Au    9 Ag   10 Ag   10 Au   11 Ag   11 Au   12 Au   12 Ag                 
-10.469 -10.469 -10.469 -10.469 -10.469 -10.469 -10.468 -10.468
 13 Au   13 Ag   14 Ag   14 Au   15 Au   15 Ag   16 Au   16 Ag                 
-10.468 -10.468 -10.468 -10.468 -10.468 -10.468 -10.468 -10.468
 17 Au   17 Ag   18 Ag   18 Au   19 Au   19 Ag   20 Ag   20 Au                 
-10.465 -10.465 -10.465 -10.465 -10.465 -10.465 -10.465 -10.465
 21 Ag   21 Au   22 Au   22 Ag   23 Au   23 Ag   24 Au   24 Ag                 
-10.465 -10.465 -10.464 -10.464 -10.464 -10.464 -10.464 -10.464
 25 Au   25 Ag   26 Ag   26 Au   27 Ag   27 Au   28 Au   28 Ag                 
-10.464 -10.464 -10.463 -10.463  -1.202  -1.183  -1.182  -1.179
 29 Ag   29 Au   30 Au   30 Ag   31 Ag   31 Au   32 Au   33 Au                 
 -1.144  -1.144  -1.142  -1.141  -1.141  -1.103  -1.101  -1.100
 32 Ag   33 Ag   34 Ag   35 Ag   36 Ag   34 Au   35 Au   36 Au                 
 -1.069  -1.069  -1.069  -1.068  -1.017  -1.017  -1.017  -1.016
 37 Au   38 Au   39 Au   40 Au   37 Ag   38 Ag   39 Ag   40 Ag                 
 -1.015  -1.000  -1.000  -0.998  -0.998  -0.941  -0.940  -0.940
 41 Ag   42 Ag   43 Ag   44 Ag   45 Ag   41 Au   42 Au   43 Au                 
 -0.940  -0.939  -0.927  -0.925  -0.924  -0.882  -0.882  -0.882
 44 Au   45 Au   46 Au   47 Au   48 Au   49 Au   50 Au   51 Au                 
 -0.844  -0.844  -0.843  -0.843  -0.842  -0.839  -0.839  -0.837
 46 Ag   47 Ag   48 Ag   49 Ag   50 Ag   51 Ag   52 Ag   53 Ag                 
 -0.815  -0.771  -0.771  -0.771  -0.770  -0.745  -0.745  -0.744
 54 Ag   55 Ag   56 Ag   57 Ag   58 Ag   52 Au   53 Au   54 Au                 
 -0.743  -0.743  -0.728  -0.728  -0.728  -0.703  -0.702  -0.701
 55 Au   56 Au   57 Au   58 Au   59 Au   60 Au   61 Au   62 Au                 
 -0.700  -0.678  -0.676  -0.675  -0.674  -0.674  -0.674  -0.673
 59 Ag   63 Au   64 Au   65 Au   66 Au   67 Au   68 Au   69 Au                 
 -0.655  -0.655  -0.653  -0.653  -0.652  -0.640  -0.639  -0.639
 60 Ag   61 Ag   62 Ag   63 Ag   64 Ag   65 Ag   66 Ag   67 Ag                 
 -0.639  -0.629  -0.629  -0.628  -0.627  -0.626  -0.626  -0.626
 68 Ag   69 Ag   70 Ag   71 Ag   72 Ag   73 Ag   74 Ag   75 Ag                 
 -0.625  -0.608  -0.607  -0.607  -0.607  -0.568  -0.565  -0.565
 76 Ag   70 Au   71 Au   72 Au   73 Au   74 Au   77 Ag   75 Au                 
 -0.564  -0.564  -0.562  -0.560  -0.560  -0.551  -0.551  -0.550
 78 Ag   76 Au   79 Ag   80 Ag   81 Ag   77 Au   78 Au   79 Au                 
 -0.549  -0.548  -0.547  -0.547  -0.546  -0.546  -0.472  -0.470
 80 Au   81 Au   82 Au   83 Au   84 Au   85 Au   82 Ag   83 Ag                 
 -0.466  -0.466  -0.464  -0.463  -0.462  -0.461  -0.460  -0.410
 84 Ag   85 Ag   86 Ag   87 Ag   88 Ag   89 Ag   90 Ag   86 Au                 
 -0.408  -0.408  -0.408  -0.406
 87 Au   88 Au   89 Au   90 Au                                                 
 -- Virtual --                   
 -0.191  -0.184  -0.183  -0.136  -0.135  -0.134  -0.090  -0.089
 91 Au   92 Au   93 Au   91 Ag   92 Ag   93 Ag   94 Au   94 Ag                 
 -0.088  -0.086  -0.086  -0.084  -0.083  -0.083  -0.015  -0.015
 95 Au   96 Au   95 Ag   96 Ag   97 Ag   98 Ag   97 Au   98 Au                 
 -0.012  -0.012  -0.011   0.005   0.008   0.009   0.011   0.032
 99 Au  100 Au  101 Au   99 Ag  100 Ag  101 Ag  102 Ag  102 Au                 
  0.035   0.035   0.037   0.056   0.059   0.061   0.080   0.084
103 Au  104 Au  105 Au  103 Ag  104 Ag  105 Ag  106 Au  107 Au                 
  0.085   0.111   0.111   0.112   0.112   0.113   0.140   0.141
108 Au  106 Ag  107 Ag  108 Ag  109 Ag  110 Ag  111 Ag  112 Ag                 
  0.143   0.148   0.150   0.151   0.159   0.159   0.160   0.160
113 Ag  109 Au  110 Au  111 Au  112 Au  113 Au  114 Au  115 Au                 
  0.188   0.192   0.195   0.197   0.197   0.216   0.217   0.217
114 Ag  115 Ag  116 Ag  117 Ag  118 Ag  119 Ag  120 Ag  121 Ag                 
  0.217   0.248   0.249   0.251   0.252   0.252   0.270   0.276
122 Ag  116 Au  117 Au  118 Au  119 Au  120 Au  121 Au  122 Au                 
  0.278   0.291   0.291   0.292   0.324   0.327   0.328   0.348
123 Au  124 Au  125 Au  126 Au  123 Ag  124 Ag  125 Ag  127 Au                 
  0.351   0.352   0.354   0.356   0.398   0.409   0.410   0.416
128 Au  129 Au  130 Au  131 Au  126 Ag  127 Ag  128 Ag  129 Ag                 
  0.422   0.427   0.432   0.432   0.434   0.434   0.434   0.434
130 Ag  132 Au  131 Ag  133 Au  132 Ag  134 Au  133 Ag  134 Ag                 
  0.437   0.437   0.439   0.439   0.439   0.440   0.440   0.440
135 Au  135 Ag  136 Ag  137 Ag  138 Ag  139 Ag  136 Au  137 Au                 
  0.443   0.465   0.466   0.467   0.467   0.471   0.471   0.472
138 Au  139 Au  140 Au  141 Au  140 Ag  141 Ag  142 Ag  143 Ag                 
  0.474   0.475   0.475   0.477   0.491   0.496   0.496   0.497
144 Ag  145 Ag  146 Ag  147 Ag  148 Ag  142 Au  143 Au  144 Au                 
  0.497   0.498   0.499   0.503   0.504   0.504   0.505   0.510
[...]
            7           8           9          10          11          12
    1  -0.0000323  -0.0000158   0.0000210   0.0000131  -0.0000142  -0.0000201
    2   0.0000202  -0.0000123   0.0000065   0.0000063  -0.0000071  -0.0000058
    3   0.0000082  -0.0000077  -0.0000092   0.0000162  -0.0000158   0.0000097
           13          14          15          16          17          18
    1   0.0000324   0.0000161   0.0000239   0.0000094  -0.0000098  -0.0000235
    2  -0.0000333  -0.0000282  -0.0000278  -0.0000262   0.0000265   0.0000276
    3   0.0000290   0.0000119   0.0000115   0.0000233  -0.0000240  -0.0000123
           19          20          21          22          23          24
    1  -0.0000162  -0.0000323  -0.0000010   0.0000137   0.0000312   0.0000448
    2   0.0000288   0.0000324  -0.0000478  -0.0000395   0.0000263   0.0000406
    3  -0.0000108  -0.0000280   0.0000075   0.0000234   0.0000160  -0.0000084
           25          26          27          28          29          30
    1  -0.0000453  -0.0000293  -0.0000155   0.0000015   0.0000308   0.0000033
    2  -0.0000391  -0.0000212   0.0000352   0.0000459  -0.0000415   0.0000128
    3   0.0000102  -0.0000190  -0.0000276  -0.0000061   0.0000061   0.0000141
           31          32          33          34          35          36
    1   0.0000117  -0.0000206   0.0000198  -0.0000111  -0.0000026  -0.0000314
    2  -0.0000427   0.0000186  -0.0000188   0.0000432  -0.0000119   0.0000411
    3   0.0000064  -0.0000236   0.0000203  -0.0000068  -0.0000170  -0.0000066
           37          38          39          40          41          42
    1   0.0000556   0.0000242  -0.0000356  -0.0000717   0.0000711   0.0000363
    2  -0.0000056  -0.0000108  -0.0000146   0.0000026  -0.0000018   0.0000134
    3  -0.0000385   0.0000732   0.0000689  -0.0000304   0.0000325  -0.0000671
           43          44          45          46          47          48
    1  -0.0000242  -0.0000557   0.0000161   0.0000277   0.0000087   0.0000206
    2   0.0000104   0.0000063   0.0000993   0.0000846  -0.0000641  -0.0001291
    3  -0.0000746   0.0000372   0.0001052  -0.0000907  -0.0001164   0.0000655
           49          50          51          52          53          54
    1  -0.0000224  -0.0000094  -0.0000269  -0.0000144  -0.0000247   0.0000216
    2   0.0001287   0.0000602  -0.0000813  -0.0000989   0.0000188  -0.0000076
    3  -0.0000656   0.0001190   0.0000943  -0.0001052   0.0000192   0.0000049
           55          56          57          58          59          60
    1  -0.0000384   0.0000150  -0.0000143   0.0000376  -0.0000222   0.0000255
    2   0.0000242   0.0000026  -0.0000032  -0.0000247   0.0000080  -0.0000183
    3   0.0000239  -0.0000352   0.0000361  -0.0000239  -0.0000040  -0.0000192
 Max gradient component =       1.291E-04
 RMS gradient           =       3.901E-05
 Gradient time:  CPU 38221.60 s  wall 4810.75 s

     Step 20	:
        Energy is -2285.0767409432
                            Maximum         Tolerance       Converged?
         Gradient           1.02057214e-04	3.00000000e-04	true
         Displacement       2.05030588e-03	1.20000000e-03	false
         Energy change      8.07269316e-07	1.00000000e-06	true

	 Optimization Converged in 20 cycles

 *****************************************************
             End of BFGS Algorithm
 *****************************************************
		----------------------------------
		   Verification of Optimization
		----------------------------------

 Eigenvalues of Hessian in Optimization Verification
   0.02754926   0.03133053   0.07350915   0.10427536   0.10427625
   0.10430484   0.10437381   0.10437654   0.10437655   0.10437655
   0.10447017   0.10456026   0.10456067   0.10463317   0.10463318
   0.10463656   0.10463656   0.10463656   0.10474952   0.10492430
   0.10492430   0.10492430   0.10500321   0.10500391   0.10527007
   0.10562597   0.10562699   0.10566892   0.10624673   0.10624673
   0.10624673   0.10676342   0.10986333   0.10986334   0.10987431
   0.10987431   0.10987431   0.11203391   0.11206783   0.11207140
   0.11354113   0.11391266   0.11401999   0.11402255   0.12339952
   0.12341785   0.12341786   0.12341786   0.12668801   0.12668801
   0.12668801   0.14271826   0.14544120   0.14544243   0.14545178
   0.14756968   0.14793390   0.14793392   0.14794523   0.14794523
   0.14794523   0.14825966   0.14826267   0.14878617   0.14896606
   0.14896610   0.14897498   0.14897498   0.14897499   0.15141177
   0.15141555   0.15150549   0.15254256   0.15712391   0.15712391
   0.15712392   0.15713681   0.15735806   0.15736181   0.15754163
   0.16315513   0.16316622   0.16405129   0.17610695   0.19321543
   0.22902266   0.23917468   0.23923455   0.23931581   0.24075581
   0.24185858   0.24192246   0.24192255   0.24192255   0.25107527
   0.25120438   0.25135727   0.25958299   0.25958299   0.25958300
   0.27534602   0.27534603   0.27536013   0.27536013   0.27536014
   0.29196527   0.29466893   0.29467346   0.29494885   0.30096426
   0.38275289   0.38276123   0.38322493   0.39406818   0.39406937
   0.39406938   0.43158257   0.44368447   0.45191402   0.45191419
   0.45191887   0.45191887   0.45191904   0.45355361   0.45356422
   0.45356423   0.45427486   0.45609883   0.45616692   0.45936860
   0.46289130   0.46495396   0.46701811   0.46702440   0.46702440
   0.46702529   0.46784517   0.46790062   0.47033336   0.47036646
   0.47431086   0.47695231   0.47695231   0.47695509   0.47696620
   0.47706288   0.48513568   0.49614502   0.49832114   0.49998378
   0.49999377   0.49999999   0.49999999   0.49999999   0.50000000
   0.50000000   0.50000000   0.50000000   0.50000000   0.50000000
   0.50000000   0.50000000   0.50000001   0.50000071   0.50000757
   0.50002182   0.50006050   0.50012801   0.50063983   0.50507023
   0.50604713   0.53152265   0.60092764   0.81522755

 Found a minimum
		---------------------------------
		       End of Verification
		---------------------------------

 Final energy is -2285.076740943234

	******************************
	**  OPTIMIZATION CONVERGED  **
	******************************
 ----------------------------------------------------------------
             Standard Nuclear Orientation (Angstroms)
    I     Atom           X                Y                Z
 ----------------------------------------------------------------
    1      C       3.4621172317    -0.9657741686    -0.1165696754
    2      C       3.5471734952     0.4105715677     0.0495788082
    3      C      -3.5471739921    -0.4105701246    -0.0495834018
    4      C      -3.4621171600     0.9657794016     0.1165360226
    5      C       0.7122143489     0.3637378173    -3.4022682743
    6      C      -0.7123124674     0.4584077942    -3.3911676375
    7      C       0.7123635735    -0.4583981590     3.3911742726
    8      C      -0.7122666849    -0.3637498801     3.4022724064
    9      C      -0.1985330706    -3.3514649548    -1.0978114946
   10      C      -0.1987860939    -3.5171529301     0.2671706635
   11      C       0.1988066149     3.5171555999    -0.2671496476
   12      C       0.1985149150     3.3514564674     1.0978314797
   13      C       2.9657319324    -1.5112240900    -1.3629238841
   14      C       2.9657877489    -1.7928500339     0.9638906613
   15      C       3.1266383529     1.2940806685    -1.0145528960
   16      C       3.1268636247     1.0152728162     1.2935682183
   17      C      -3.1268518214    -1.0153005674    -1.2935545257
   18      C      -3.1266512285    -1.2940551386     1.0145724034
   19      C      -2.9657515635     1.7928252958    -0.9639416753
   20      C      -2.9657678529     1.5112615237     1.3628804758
   21      C       1.3628687913    -0.9192637579    -3.1256707122
   22      C       1.4877049628     1.3826237005    -2.8437857358
   23      C      -1.4879602121    -0.6642176484    -3.0914117086
   24      C      -1.3630846445     1.6383627009    -2.8169369600
   25      C       1.3631380755    -1.6383895857     2.8169053837
   26      C       1.4879553941     0.6641555642     3.0914437874
   27      C      -1.4877011060    -1.3825711730     2.8438313673
   28      C      -1.3629227199     0.9192967857     3.1256466948
   29      C       1.0046918386    -2.9285164415    -1.7785676286
   30      C      -1.3400381430    -2.7097754311    -1.7544673449
   31      C       1.0041834470    -3.2675267165     1.0293474882
   32      C      -1.3406102750    -3.0504499149     1.0574112448
   33      C       1.3406327630     3.0504501299    -1.0573501499
   34      C      -1.0041487160     3.2675129571    -1.0293594451
   35      C       1.3400166612     2.7097602161     1.7545256438
   36      C      -1.0047248408     2.9285318505     1.7785593062
   37      C       2.5754098422    -0.6549760101    -2.3845139570
   38      C       2.5755561657    -1.2044751392     2.1599299534
   39      C       2.6539335772     0.7762082652    -2.1974851477
   40      C       2.6541560649     0.2301431885     2.3187704942
   41      C      -2.6541366659    -0.2301919550    -2.3187833651
   42      C      -2.6539543011    -0.7761571676     2.1974838825
   43      C      -2.5755114411     1.2044397821    -2.1599535596
   44      C      -2.5754550369     0.6550164204     2.3844996631
   45      C       0.5995546750    -2.0240962956    -2.8312267750
   46      C       0.8609566134     2.5245806054    -2.2597175707
   47      C      -0.8605954189    -1.9122161635    -2.7964509884
   48      C      -0.5993967852     2.6412288351    -2.2675439649
   49      C       0.5994523020    -2.6412419273     2.2675281538
   50      C       0.8605746161     1.9122328457     2.7964578755
   51      C      -0.8609362578    -2.5246001129     2.2597184909
   52      C      -0.5996095222     2.0241119350     2.8312155800
   53      C       2.1612690136    -2.6748497076    -1.0525467652
   54      C      -2.4606427020    -2.2818232838    -0.9797552203
   55      C       2.1607231855    -2.8484012518     0.3851923173
   56      C      -2.4609766611    -2.4493602679     0.4072513798
   57      C       2.4609742092     2.4493685779    -0.4072129288
   58      C      -2.1606942872     2.8483950145    -0.3852327436
   59      C       2.4606436478     2.2818060706     0.9797922731
   60      C      -2.1612960149     2.6748656158     1.0525093970
 ----------------------------------------------------------------
 Molecular Point Group                 Ci    NOp =  2
 Largest Abelian Subgroup              Ci    NOp =  2
 Nuclear Repulsion Energy =        8357.87681775 hartrees
 There are      180 alpha and      179 beta electrons

Z-matrix Print:
$molecule
1 2
C 
C  1 1.396931
C  1 1.427591 2 120.217712
C  3 1.397253 1 120.159206 2 138.117611 0
C  2 1.427712 1 120.160746 3 -0.045210 0
C  5 1.397058 2 120.155394 1 -138.064045 0
C  6 1.427616 5 120.186120 2 -0.085558 0
C  7 1.397031 6 120.156006 5 138.148884 0
C  8 1.427962 7 120.190277 6 0.057970 0
C  9 1.397088 8 120.189621 7 -138.105434 0
C  4 1.427985 3 120.178755 1 0.064941 0
C  11 1.397090 4 120.151998 3 -138.124847 0
C  12 1.427992 11 120.189330 4 0.040365 0
C  13 1.396974 12 120.191083 11 138.105491 0
C  14 1.427698 13 120.156361 12 -0.057583 0
C  15 1.396964 14 120.187193 13 -138.149061 0
C  16 1.427814 15 120.156284 14 0.085477 0
C  17 1.396836 16 120.161639 15 138.064096 0
C  18 1.427674 17 120.218793 16 0.045147 0
C  19 1.397193 18 120.159605 17 -138.117804 0
C  6 1.464684 5 108.488469 2 143.461928 0
C  21 1.375118 6 119.854785 5 -142.408262 0
C  21 1.445537 6 107.983630 5 0.395576 0
C  23 1.388859 21 119.985919 6 -142.001822 0
C  22 1.445626 21 120.177070 6 138.225661 0
C  25 1.388945 22 119.975936 21 -0.605867 0
C  25 1.445618 22 107.050137 21 -141.897373 0
C  27 1.375115 25 120.202600 22 141.912660 0
C  28 1.445474 27 120.189410 25 0.040545 0
C  29 1.388958 28 119.996230 27 -0.632404 0
C  29 1.445468 28 107.032771 27 -141.970138 0
C  31 1.374756 29 120.190737 28 141.953721 0
C  23 1.445647 21 107.072226 6 -0.659050 0
C  33 1.375061 23 120.207027 21 -141.912680 0
C  34 1.445392 33 120.182393 23 0.017040 0
C  35 1.388581 34 119.988573 33 0.578559 0
C  32 1.445745 31 120.204878 29 -0.000000 0
C  37 1.388939 32 119.979538 31 -0.642593 0
C  37 1.445698 32 107.015305 31 -141.958145 0
C  39 1.375002 37 120.189607 32 141.961929 0
C  15 1.464723 14 119.994119 13 1.260609 0
C  41 1.375108 15 119.855125 14 -1.219369 0
C  41 1.445523 15 107.983824 14 -144.024907 0
C  43 1.388876 41 119.985982 15 142.001665 0
C  42 1.445626 41 120.176887 15 -138.225596 0
C  45 1.388945 42 119.975879 41 0.605380 0
C  45 1.445619 42 107.050150 41 141.896938 0
C  47 1.375126 45 120.202750 42 -141.913077 0
C  48 1.445488 47 120.188846 45 -0.038770 0
C  49 1.388941 48 119.996167 47 0.630650 0
C  49 1.445482 48 107.034024 47 141.969872 0
C  51 1.374773 49 120.190277 48 -141.953731 0
C  43 1.445633 41 107.070972 15 0.660367 0
C  53 1.375043 43 120.207465 41 141.912669 0
C  54 1.445383 53 120.182591 43 -0.017662 0
C  55 1.388591 54 119.988568 53 -0.579263 0
C  52 1.445754 51 120.204710 49 0.000000 0
C  57 1.388929 52 119.979545 51 0.641969 0
C  57 1.445706 52 107.016059 51 141.958364 0
C  59 1.375001 57 120.189166 52 -141.961506 0
$end

 -----------------------------------------------------------------------
                  END OF GEOMETRY OPTIMIZER USING LIBOPT3               
 -----------------------------------------------------------------------
 Total job time:  136531.94s(wall), 1051602.33s(cpu) 
 Wed Nov 30 02:38:52 2022

        *************************************************************
        *                                                           *
        *  Thank you very much for using Q-Chem.  Have a nice day.  *
        *                                                           *
        *************************************************************


 
User input: 2 of 2 
 
                  Welcome to Q-Chem
     A Quantum Leap Into The Future Of Chemistry


 Q-Chem 6.0 (devel), Q-Chem, Inc., Pleasanton, CA (2022)

 E. Epifanovsky,  A. T. B. Gilbert,  Xintian Feng,  Joonho Lee,  Yuezhi Mao,  
 N. Mardirossian,  P. Pokhilko,  A. White,  M. Wormit,  M. P. Coons,  
 A. L. Dempwolff,  Zhengting Gan,  D. Hait,  P. R. Horn,  L. D. Jacobson,  
 I. Kaliman,  J. Kussmann,  A. W. Lange,  Ka Un Lao,  D. S. Levine,  Jie Liu,  
 S. C. McKenzie,  A. F. Morrison,  K. Nanda,  F. Plasser,  D. R. Rehn,  
 M. L. Vidal,  Zhi-Qiang You,  Ying Zhu,  B. Alam,  B. Albrecht,  
 A. Aldossary,  E. Alguire,  J. H. Andersen,  V. Athavale,  D. Barton,  
 K. Begam,  A. Behn,  N. Bellonzi,  Y. A. Bernard,  E. J. Berquist,  
 H. Burton,  A. Carreras,  K. Carter-Fenk,  Romit Chakraborty,  
 Chandrima Chakravarty,  Junhan Chen,  A. D. Chien,  K. D. Closser,  
 V. Cofer-Shabica,  L. Cunha,  S. Dasgupta,  Jia Deng,  M. de Wergifosse,  
 M. Diedenhofen,  Hainam Do,  S. Ehlert,  Po-Tung Fang,  S. Fatehi,  
 Qingguo Feng,  T. Friedhoff,  B. Ganoe,  J. Gayvert,  Qinghui Ge,  
 G. Gidofalvi,  M. Goldey,  J. Gomes,  C. Gonzalez-Espinoza,  S. Gulania,  
 A. Gunina,  J. A. Gyamfi,  M. W. D. Hanson-Heine,  P. H. P. Harbach,  
 A. W. Hauser,  M. F. Herbst,  M. Hernandez Vera,  M. Hodecker,  
 Z. C. Holden,  S. Houck,  Xunkun Huang,  Kerwin Hui,  B. C. Huynh,  
 K. Ikeda,  M. Ivanov,  Hyunjun Ji,  Zuxin Jin,  Hanjie Jiang,  B. Kaduk,  
 S. Kaehler,  R. Kang,  K. Khistyaev,  Jaehoon Kim,  Yongbin Kim,  
 P. Klunzinger,  Z. Koczor-Benda,  Joong Hoon Koh,  D. Kosenkov,  
 Saikiran Kotaru,  L. Koulias,  T. Kowalczyk,  C. M. Krauter,  K. Kue,  
 A. Kunitsa,  T. Kus,  A. Landau,  K. V. Lawler,  D. Lefrancois,  S. Lehtola,  
 Rain Li,  Shaozhi Li,  Yi-Pei Li,  Jiashu Liang,  M. Liebenthal,  
 Hung-Hsuan Lin,  You-Sheng Lin,  Fenglai Liu,  Kuan-Yu Liu,  
 M. Loipersberger,  A. Luenser,  C. Malbon,  A. Manjanath,  P. Manohar,  
 E. Mansoor,  S. F. Manzer,  Shan-Ping Mao,  A. V. Marenich,  T. Markovich,  
 S. Mason,  F. Matz,  S. A. Maurer,  P. F. McLaughlin,  M. F. S. J. Menger,  
 J.-M. Mewes,  S. A. Mewes,  P. Morgante,  Mohammad Mostafanejad,  
 J. W. Mullinax,  K. J. Oosterbaan,  G. Paran,  V. Parravicini,  
 Alexander C. Paul,  Suranjan K. Paul,  F. Pavosevic,  Zheng Pei,  S. Prager,  
 E. I. Proynov,  E. Ramos,  B. Rana,  A. E. Rask,  A. Rettig,  R. M. Richard,  
 F. Rob,  E. Rossomme,  T. Scheele,  M. Scheurer,  M. Schneider,  
 P. E. Schneider,  N. Sergueev,  S. M. Sharada,  Hengyuan Shen,  
 W. Skomorowski,  D. W. Small,  C. J. Stein,  Yingli Su,  Yu-Chuan Su,  
 E. J. Sundstrom,  Zhen Tao,  J. Thirman,  Hung-Yi Tsai,  T. Tsuchimochi,  
 N. M. Tubman,  C. Utku,  S. P. Veccham,  O. Vydrov,  J. Wenzel,  
 Jonathan Wong,  J. Witte,  A. Yamada,  Chou-Hsun Yang,  Kun Yao,  
 S. Yeganeh,  S. R. Yost,  A. Zech,  F. Zeller,  Igor Ying Zhang,  
 Xing Zhang,  Yu Zhang,  D. Zuev,  A. Aspuru-Guzik,  A. T. Bell,  
 N. A. Besley,  K. B. Bravaya,  B. R. Brooks,  D. Casanova,  Jeng-Da Chai,  
 Hsing-Ta Chen,  S. Coriani,  C. J. Cramer,  A. E. DePrince, III,  
 R. A. DiStasio Jr.,  A. Dreuw,  B. D. Dunietz,  T. R. Furlani,  
 W. A. Goddard III,  S. Grimme,  S. Hammes-Schiffer,  T. Head-Gordon,  
 W. J. Hehre,  Chao-Ping Hsu,  T.-C. Jagau,  Yousung Jung,  A. Klamt,  
 Jing Kong,  D. S. Lambrecht,  Xiangyuan Li,  WanZhen Liang,  N. J. Mayhall,  
 C. W. McCurdy,  J. B. Neaton,  T. Neudecker,  C. Ochsenfeld,  
 J. A. Parkhill,  R. Peverati,  V. A. Rassolov,  Haisheng Ren,  Yihan Shao,  
 L. V. Slipchenko,  R. P. Steele,  J. E. Subotnik,  A. J. W. Thom,  
 A. Tkatchenko,  D. G. Truhlar,  T. Van Voorhis,  Fan Wang,  
 T. A. Wesolowski,  K. B. Whaley,  H. L. Woodcock III,  P. M. Zimmerman,  
 S. Faraji,  P. M. W. Gill,  M. Head-Gordon,  J. M. Herbert,  A. I. Krylov

 Contributors to earlier versions of Q-Chem not listed above: 
 R. D. Adamson,  B. Austin,  R. Baer,  J. Baker,  G. J. O. Beran,  
 K. Brandhorst,  S. T. Brown,  E. F. C. Byrd,  Arup K. Chakraborty,  
 G. K. L. Chan,  Chun-Min Chang,  Yunqing Chen,  C.-L. Cheng,  
 Siu Hung Chien,  D. M. Chipman,  D. L. Crittenden,  H. Dachsel,  
 R. J. Doerksen,  A. D. Dutoi,  R. G. Edgar,  J. Fosso-Tande,  
 L. Fusti-Molnar,  D. Ghosh,  A. Ghysels,  A. Golubeva-Zadorozhnaya,  
 J. Gonthier,  M. S. Gordon,  S. R. Gwaltney,  G. Hawkins,  J. E. Herr,  
 A. Heyden,  S. Hirata,  E. G. Hohenstein,  G. Kedziora,  F. J. Keil,  
 C. Kelley,  Jihan Kim,  R. A. King,  R. Z. Khaliullin,  P. P. Korambath,  
 W. Kurlancheek,  A. Laurent,  A. M. Lee,  M. S. Lee,  S. V. Levchenko,  
 Ching Yeh Lin,  D. Liotard,  E. Livshits,  R. C. Lochan,  I. Lotan,  
 L. A. Martinez-Martinez,  P. E. Maslen,  N. Nair,  D. P. O'Neill,  
 D. Neuhauser,  E. Neuscamman,  C. M. Oana,  R. Olivares-Amaya,  R. Olson,  
 T. M. Perrine,  B. Peters,  P. A. Pieniazek,  A. Prociuk,  Y. M. Rhee,  
 J. Ritchie,  M. A. Rohrdanz,  E. Rosta,  N. J. Russ,  H. F. Schaefer III,  
 M. W. Schmidt,  N. E. Schultz,  S. Sharma,  N. Shenvi,  C. D. Sherrill,  
 A. C. Simmonett,  A. Sodt,  T. Stein,  D. Stuck,  K. S. Thanthiriwatte,  
 V. Vanovschi,  L. Vogt,  Tao Wang,  A. Warshel,  M. A. Watson,  
 C. F. Williams,  Q. Wu,  X. Xu,  Jun Yang,  W. Zhang,  Yan Zhao

   Please cite Q-Chem as follows:
  "Software for the frontiers of quantum chemistry:
   An overview of developments in the Q-Chem 5 package"
   J. Chem. Phys. 155, 084801 (2021)
   https://doi.org/10.1063/5.0055522 (open access)

 Q-Chem 6.0.1 for Intel X86 EM64T Linux

 Parts of Q-Chem use Armadillo 9.900.5 (Nocturnal Misbehaviour).
 http://arma.sourceforge.net/

 Q-Chem begins on Wed Nov 30 02:38:53 2022  

 Host: node1.as.kent.edu
0

     Scratch files written to /home/eholder/active_projects/fe@c60/c60/reproduce-attempt/cation-opt/opt//
 Processing $rem in /data/dunietz/eholder/qchem/config/preferences:
 Processing $rem in /home/eholder/.qchemrc:

 Name = B3LYP-D3

 Q-Chem fatal error occurred in module libdft/dftcodes.C, line 1000:

 Unrecognized exchange functional in XCode


 Please submit a crash report at q-chem.com/reporter 
 
 
