                  Welcome to Q-Chem
     A Quantum Leap Into The Future Of Chemistry


 Q-Chem 6.0 (devel), Q-Chem, Inc., Pleasanton, CA (2022)

 E. Epifanovsky,  A. T. B. Gilbert,  Xintian Feng,  Joonho Lee,  Yuezhi Mao,  
 N. Mardirossian,  P. Pokhilko,  A. White,  M. Wormit,  M. P. Coons,  
 A. L. Dempwolff,  Zhengting Gan,  D. Hait,  P. R. Horn,  L. D. Jacobson,  
 I. Kaliman,  J. Kussmann,  A. W. Lange,  Ka Un Lao,  D. S. Levine,  Jie Liu,  
 S. C. McKenzie,  A. F. Morrison,  K. Nanda,  F. Plasser,  D. R. Rehn,  
 M. L. Vidal,  Zhi-Qiang You,  Ying Zhu,  B. Alam,  B. Albrecht,  
 A. Aldossary,  E. Alguire,  J. H. Andersen,  V. Athavale,  D. Barton,  
 K. Begam,  A. Behn,  N. Bellonzi,  Y. A. Bernard,  E. J. Berquist,  
 H. Burton,  A. Carreras,  K. Carter-Fenk,  Romit Chakraborty,  
 Chandrima Chakravarty,  Junhan Chen,  A. D. Chien,  K. D. Closser,  
 V. Cofer-Shabica,  L. Cunha,  S. Dasgupta,  Jia Deng,  M. de Wergifosse,  
 M. Diedenhofen,  Hainam Do,  S. Ehlert,  Po-Tung Fang,  S. Fatehi,  
 Qingguo Feng,  T. Friedhoff,  B. Ganoe,  J. Gayvert,  Qinghui Ge,  
 G. Gidofalvi,  M. Goldey,  J. Gomes,  C. Gonzalez-Espinoza,  S. Gulania,  
 A. Gunina,  J. A. Gyamfi,  M. W. D. Hanson-Heine,  P. H. P. Harbach,  
 A. W. Hauser,  M. F. Herbst,  M. Hernandez Vera,  M. Hodecker,  
 Z. C. Holden,  S. Houck,  Xunkun Huang,  Kerwin Hui,  B. C. Huynh,  
 K. Ikeda,  M. Ivanov,  Hyunjun Ji,  Zuxin Jin,  Hanjie Jiang,  B. Kaduk,  
 S. Kaehler,  R. Kang,  K. Khistyaev,  Jaehoon Kim,  Yongbin Kim,  
 P. Klunzinger,  Z. Koczor-Benda,  Joong Hoon Koh,  D. Kosenkov,  
 Saikiran Kotaru,  L. Koulias,  T. Kowalczyk,  C. M. Krauter,  K. Kue,  
 A. Kunitsa,  T. Kus,  A. Landau,  K. V. Lawler,  D. Lefrancois,  S. Lehtola,  
 Rain Li,  Shaozhi Li,  Yi-Pei Li,  Jiashu Liang,  M. Liebenthal,  
 Hung-Hsuan Lin,  You-Sheng Lin,  Fenglai Liu,  Kuan-Yu Liu,  
 M. Loipersberger,  A. Luenser,  C. Malbon,  A. Manjanath,  P. Manohar,  
 E. Mansoor,  S. F. Manzer,  Shan-Ping Mao,  A. V. Marenich,  T. Markovich,  
 S. Mason,  F. Matz,  S. A. Maurer,  P. F. McLaughlin,  M. F. S. J. Menger,  
 J.-M. Mewes,  S. A. Mewes,  P. Morgante,  Mohammad Mostafanejad,  
 J. W. Mullinax,  K. J. Oosterbaan,  G. Paran,  V. Parravicini,  
 Alexander C. Paul,  Suranjan K. Paul,  F. Pavosevic,  Zheng Pei,  S. Prager,  
 E. I. Proynov,  E. Ramos,  B. Rana,  A. E. Rask,  A. Rettig,  R. M. Richard,  
 F. Rob,  E. Rossomme,  T. Scheele,  M. Scheurer,  M. Schneider,  
 P. E. Schneider,  N. Sergueev,  S. M. Sharada,  Hengyuan Shen,  
 W. Skomorowski,  D. W. Small,  C. J. Stein,  Yingli Su,  Yu-Chuan Su,  
 E. J. Sundstrom,  Zhen Tao,  J. Thirman,  Hung-Yi Tsai,  T. Tsuchimochi,  
 N. M. Tubman,  C. Utku,  S. P. Veccham,  O. Vydrov,  J. Wenzel,  
 Jonathan Wong,  J. Witte,  A. Yamada,  Chou-Hsun Yang,  Kun Yao,  
 S. Yeganeh,  S. R. Yost,  A. Zech,  F. Zeller,  Igor Ying Zhang,  
 Xing Zhang,  Yu Zhang,  D. Zuev,  A. Aspuru-Guzik,  A. T. Bell,  
 N. A. Besley,  K. B. Bravaya,  B. R. Brooks,  D. Casanova,  Jeng-Da Chai,  
 Hsing-Ta Chen,  S. Coriani,  C. J. Cramer,  A. E. DePrince, III,  
 R. A. DiStasio Jr.,  A. Dreuw,  B. D. Dunietz,  T. R. Furlani,  
 W. A. Goddard III,  S. Grimme,  S. Hammes-Schiffer,  T. Head-Gordon,  
 W. J. Hehre,  Chao-Ping Hsu,  T.-C. Jagau,  Yousung Jung,  A. Klamt,  
 Jing Kong,  D. S. Lambrecht,  Xiangyuan Li,  WanZhen Liang,  N. J. Mayhall,  
 C. W. McCurdy,  J. B. Neaton,  T. Neudecker,  C. Ochsenfeld,  
 J. A. Parkhill,  R. Peverati,  V. A. Rassolov,  Haisheng Ren,  Yihan Shao,  
 L. V. Slipchenko,  R. P. Steele,  J. E. Subotnik,  A. J. W. Thom,  
 A. Tkatchenko,  D. G. Truhlar,  T. Van Voorhis,  Fan Wang,  
 T. A. Wesolowski,  K. B. Whaley,  H. L. Woodcock III,  P. M. Zimmerman,  
 S. Faraji,  P. M. W. Gill,  M. Head-Gordon,  J. M. Herbert,  A. I. Krylov

 Contributors to earlier versions of Q-Chem not listed above: 
 R. D. Adamson,  B. Austin,  R. Baer,  J. Baker,  G. J. O. Beran,  
 K. Brandhorst,  S. T. Brown,  E. F. C. Byrd,  Arup K. Chakraborty,  
 G. K. L. Chan,  Chun-Min Chang,  Yunqing Chen,  C.-L. Cheng,  
 Siu Hung Chien,  D. M. Chipman,  D. L. Crittenden,  H. Dachsel,  
 R. J. Doerksen,  A. D. Dutoi,  R. G. Edgar,  J. Fosso-Tande,  
 L. Fusti-Molnar,  D. Ghosh,  A. Ghysels,  A. Golubeva-Zadorozhnaya,  
 J. Gonthier,  M. S. Gordon,  S. R. Gwaltney,  G. Hawkins,  J. E. Herr,  
 A. Heyden,  S. Hirata,  E. G. Hohenstein,  G. Kedziora,  F. J. Keil,  
 C. Kelley,  Jihan Kim,  R. A. King,  R. Z. Khaliullin,  P. P. Korambath,  
 W. Kurlancheek,  A. Laurent,  A. M. Lee,  M. S. Lee,  S. V. Levchenko,  
 Ching Yeh Lin,  D. Liotard,  E. Livshits,  R. C. Lochan,  I. Lotan,  
 L. A. Martinez-Martinez,  P. E. Maslen,  N. Nair,  D. P. O'Neill,  
 D. Neuhauser,  E. Neuscamman,  C. M. Oana,  R. Olivares-Amaya,  R. Olson,  
 T. M. Perrine,  B. Peters,  P. A. Pieniazek,  A. Prociuk,  Y. M. Rhee,  
 J. Ritchie,  M. A. Rohrdanz,  E. Rosta,  N. J. Russ,  H. F. Schaefer III,  
 M. W. Schmidt,  N. E. Schultz,  S. Sharma,  N. Shenvi,  C. D. Sherrill,  
 A. C. Simmonett,  A. Sodt,  T. Stein,  D. Stuck,  K. S. Thanthiriwatte,  
 V. Vanovschi,  L. Vogt,  Tao Wang,  A. Warshel,  M. A. Watson,  
 C. F. Williams,  Q. Wu,  X. Xu,  Jun Yang,  W. Zhang,  Yan Zhao

   Please cite Q-Chem as follows:
  "Software for the frontiers of quantum chemistry:
   An overview of developments in the Q-Chem 5 package"
   J. Chem. Phys. 155, 084801 (2021)
   https://doi.org/10.1063/5.0055522 (open access)

 Q-Chem 6.0.1 for Intel X86 EM64T Linux

 Parts of Q-Chem use Armadillo 9.900.5 (Nocturnal Misbehaviour).
 http://arma.sourceforge.net/

 Q-Chem begins on Fri Dec  2 12:28:43 2022  

 Host: node5.as.kent.edu
0

     Scratch files written to /home/eholder/active_projects/fe@c60/c60/reproduce-attempt/b3lyp/opt//
 Processing $rem in /data/dunietz/eholder/qchem/config/preferences:
 Processing $rem in /home/eholder/.qchemrc:

 Checking the input file for inconsistencies... 	...done.

--------------------------------------------------------------
User input:
--------------------------------------------------------------

$molecule
read opt.txt
$end

$rem
jobtype = opt
exchange = b3lyp
basis = 3-21G(d)
iqmol_fchk = true
correlation = none
thresh = 14
mem_static = 6000
mem_total = 60000
$end

--------------------------------------------------------------
 ----------------------------------------------------------------
             Standard Nuclear Orientation (Angstroms)
    I     Atom           X                Y                Z
 ----------------------------------------------------------------
    1      C       2.0609994031     1.7129331020     2.3054648097
    2      C       3.0048466178     1.1848213266     1.4386728376
    3      C      -3.0048466176    -1.1848213263    -1.4386728378
    4      C      -2.0609994031    -1.7129331018    -2.3054648100
    5      C       0.6995587173    -2.5693901310     2.3253231008
    6      C      -0.3130004873    -3.1489340124     1.5768923500
    7      C       0.3130004874     3.1489340124    -1.5768923500
    8      C      -0.6995587176     2.5693901312    -2.3253231009
    9      C      -2.3209544997     0.7496235280     2.5591615459
   10      C      -2.3984958233     1.8926740389     1.7793479190
   11      C       2.3984958233    -1.8926740390    -1.7793479189
   12      C       2.3209544997    -0.7496235280    -2.5591615456
   13      C       1.3060263044     0.8347949418     3.1772717670
   14      C       1.1752308822     2.7692607907     1.8570675859
   15      C       3.2356856224    -0.2458192483     1.4033987300
   16      C       3.1054489096     1.6883798129     0.0830599457
   17      C      -3.1054489093    -1.6883798126    -0.0830599454
   18      C      -3.2356856222     0.2458192482    -1.4033987303
   19      C      -1.1752308820    -2.7692607911    -1.8570675861
   20      C      -1.3060263045    -0.8347949419    -3.1772717668
   21      C       0.4056377155    -1.4499210912     3.1980104963
   22      C       2.0020478257    -2.3439382648     1.7305063066
   23      C      -1.6654877198    -2.6351557261     1.6669820248
   24      C      -0.0692827170    -3.5289586091     0.1995419479
   25      C       0.0692827170     3.5289586090    -0.1995419481
   26      C       1.6654877196     2.6351557261    -1.6669820248
   27      C      -2.0020478257     2.3439382653    -1.7305063069
   28      C      -0.4056377158     1.4499210911    -3.1980104963
   29      C      -1.1188425232     0.4717557099     3.3203180931
   30      C      -2.8322570916    -0.5091844934     2.0538813954
   31      C      -1.2767636190     2.8095130976     1.7241572803
   32      C      -2.9906694067     1.8293535999     0.4578489620
   33      C       2.9906694065    -1.8293535999    -0.4578489619
   34      C       1.2767636190    -2.8095130977    -1.7241572802
   35      C       2.8322570917     0.5091844933    -2.0538813952
   36      C       1.1188425230    -0.4717557097    -3.3203180925
   37      C       1.5269143656    -0.5331045026     3.1435725243
   38      C       1.2715121528     3.2507287259     0.5610218461
   39      C       2.5132422465    -1.0856281557     2.2365368980
   40      C       2.2579753497     2.6979146222    -0.3457135645
   41      C      -2.2579753496    -2.6979146220     0.3457135648
   42      C      -2.5132422468     1.0856281557    -2.2365368986
   43      C      -1.2715121524    -3.2507287258    -0.5610218463
   44      C      -1.5269143656     0.5331045029    -3.1435725245
   45      C      -0.8873731658    -0.9588749913     3.2846145992
   46      C       2.2354990629    -2.7076960820     0.4136511464
   47      C      -1.9461520452    -1.5651747689     2.5020818343
   48      C       1.1762985951    -3.3135549463    -0.3689429212
   49      C      -1.1762985951     3.3135549461     0.3689429209
   50      C       1.9461520448     1.5651747688    -2.5020818339
   51      C      -2.2354990625     2.7076960819    -0.4136511465
   52      C       0.8873731656     0.9588749911    -3.2846145988
   53      C      -0.0464799412     1.3483934429     3.2674470509
   54      C      -3.3992748523    -0.5694078130     0.7903211802
   55      C      -0.1273959983     2.5434769088     2.4511460892
   56      C      -3.4799192747     0.6259880039    -0.0259179996
   57      C       3.4799192752    -0.6259880040     0.0259179997
   58      C       0.1273959983    -2.5434769090    -2.4511460895
   59      C       3.3992748523     0.5694078128    -0.7903211801
   60      C       0.0464799410    -1.3483934429    -3.2674470508
 ----------------------------------------------------------------
 Molecular Point Group                 Ci    NOp =  2
 Largest Abelian Subgroup              Ci    NOp =  2
 Nuclear Repulsion Energy =        8361.18557034 hartrees
 There are      180 alpha and      180 beta electrons
 Requested basis set is 3-21G(d)
 There are 180 shells and 540 basis functions

 Total QAlloc Memory Limit  60000 MB
 Mega-Array Size      5866 MB
 MEM_STATIC part      6000 MB

 -----------------------------------------------------------------------
                STARTING GEOMETRY OPTIMIZER USING LIBOPT3
                by Peter F. McLaughlin, Yu Zhang, Evgeny Epifanovsky
 -----------------------------------------------------------------------

              Initial Energy and Gradient Calculation
   -- Checking Topology for Ill-Behaving Coordinates --

 -------------------------------------------
   Coordinate       |  Removed | Additions 
 -------------------------------------------
	Bonds                     0          0
	Angles                    0          0
	Torsions                  0          0
	Co-Linear Type5s          0          0
	Co-Linear Type6s          0          0
 -------------------------------------------
     Done Checking Topology
 ----------------------------------------------------------------
             Standard Nuclear Orientation (Angstroms)
    I     Atom           X                Y                Z
 ----------------------------------------------------------------
    1      C       2.0609994031     1.7129331020     2.3054648097
    2      C       3.0048466178     1.1848213267     1.4386728376
    3      C      -3.0048466176    -1.1848213263    -1.4386728378
    4      C      -2.0609994031    -1.7129331018    -2.3054648100
    5      C       0.6995587173    -2.5693901310     2.3253231008
    6      C      -0.3130004873    -3.1489340124     1.5768923500
    7      C       0.3130004874     3.1489340124    -1.5768923500
    8      C      -0.6995587176     2.5693901312    -2.3253231009
    9      C      -2.3209544997     0.7496235280     2.5591615459
   10      C      -2.3984958233     1.8926740389     1.7793479190
   11      C       2.3984958233    -1.8926740390    -1.7793479189
   12      C       2.3209544997    -0.7496235280    -2.5591615456
   13      C       1.3060263044     0.8347949418     3.1772717670
   14      C       1.1752308822     2.7692607907     1.8570675859
   15      C       3.2356856224    -0.2458192483     1.4033987300
   16      C       3.1054489096     1.6883798129     0.0830599457
   17      C      -3.1054489093    -1.6883798127    -0.0830599454
   18      C      -3.2356856222     0.2458192482    -1.4033987303
   19      C      -1.1752308820    -2.7692607911    -1.8570675861
   20      C      -1.3060263045    -0.8347949419    -3.1772717668
   21      C       0.4056377155    -1.4499210912     3.1980104963
   22      C       2.0020478257    -2.3439382648     1.7305063066
   23      C      -1.6654877198    -2.6351557261     1.6669820248
   24      C      -0.0692827170    -3.5289586091     0.1995419479
   25      C       0.0692827170     3.5289586090    -0.1995419481
   26      C       1.6654877196     2.6351557261    -1.6669820248
   27      C      -2.0020478257     2.3439382653    -1.7305063069
   28      C      -0.4056377158     1.4499210911    -3.1980104963
   29      C      -1.1188425232     0.4717557099     3.3203180931
   30      C      -2.8322570916    -0.5091844934     2.0538813954
   31      C      -1.2767636190     2.8095130976     1.7241572803
   32      C      -2.9906694067     1.8293535999     0.4578489620
   33      C       2.9906694065    -1.8293535999    -0.4578489619
   34      C       1.2767636190    -2.8095130977    -1.7241572802
   35      C       2.8322570917     0.5091844933    -2.0538813952
   36      C       1.1188425230    -0.4717557097    -3.3203180926
   37      C       1.5269143656    -0.5331045026     3.1435725243
   38      C       1.2715121528     3.2507287259     0.5610218461
   39      C       2.5132422465    -1.0856281557     2.2365368980
   40      C       2.2579753497     2.6979146222    -0.3457135645
   41      C      -2.2579753496    -2.6979146220     0.3457135648
   42      C      -2.5132422468     1.0856281557    -2.2365368986
   43      C      -1.2715121524    -3.2507287258    -0.5610218463
   44      C      -1.5269143656     0.5331045029    -3.1435725245
   45      C      -0.8873731658    -0.9588749913     3.2846145992
   46      C       2.2354990629    -2.7076960820     0.4136511464
   47      C      -1.9461520452    -1.5651747690     2.5020818343
   48      C       1.1762985951    -3.3135549463    -0.3689429212
   49      C      -1.1762985951     3.3135549461     0.3689429209
   50      C       1.9461520448     1.5651747689    -2.5020818339
   51      C      -2.2354990625     2.7076960819    -0.4136511465
   52      C       0.8873731656     0.9588749911    -3.2846145988
   53      C      -0.0464799412     1.3483934429     3.2674470509
   54      C      -3.3992748523    -0.5694078130     0.7903211802
   55      C      -0.1273959983     2.5434769088     2.4511460892
   56      C      -3.4799192747     0.6259880039    -0.0259179996
   57      C       3.4799192752    -0.6259880040     0.0259179997
   58      C       0.1273959983    -2.5434769090    -2.4511460895
   59      C       3.3992748523     0.5694078128    -0.7903211801
   60      C       0.0464799410    -1.3483934429    -3.2674470508
 ----------------------------------------------------------------
 Molecular Point Group                 Ci    NOp =  2
 Largest Abelian Subgroup              Ci    NOp =  2
 Nuclear Repulsion Energy =        8361.18557034 hartrees
 There are      180 alpha and      180 beta electrons
 Requested basis set is 3-21G(d)
 There are 180 shells and 540 basis functions
 A cutoff of  1.0D-14 yielded  10874 shell pairs
 There are    119366 function pairs
 Smallest overlap matrix eigenvalue = 1.11E-03

 Scale SEOQF with 1.000000e-01/1.000000e-01/1.000000e-01

 Standard Electronic Orientation quadrupole field applied
 Guess from superposition of atomic densities
 Warning:  Energy on first SCF cycle will be non-variational
 SAD guess density has 360.000000 electrons

 -----------------------------------------------------------------------
  General SCF calculation program by
  Eric Jon Sundstrom, Paul Horn, Yuezhi Mao, Dmitri Zuev, Alec White,
  David Stuck, Shaama M.S., Shane Yost, Joonho Lee, David Small,
  Daniel Levine, Susi Lehtola, Hugh Burton, Evgeny Epifanovsky,
  Bang C. Huynh
 -----------------------------------------------------------------------
 Exchange:     0.2000 Hartree-Fock + 0.0800 Slater + 0.7200 B88
 Correlation:  0.1900 VWN1RPA + 0.8100 LYP
 Using SG-1 standard quadrature grid
 using 8 threads for integral computing
 -------------------------------------------------------
 OpenMP Integral computing Module                
 Release: version 1.0, May 2013, Q-Chem Inc. Pittsburgh 
 -------------------------------------------------------
 A restricted SCF calculation will be
 performed using DIIS
 SCF converges when DIIS error is below 1.0e-08
 ---------------------------------------
  Cycle       Energy         DIIS error
 ---------------------------------------
    1   -2297.0629287398      4.98e-02  
    2   -2273.3606838826      2.05e-03  
    3   -2273.4837300076      9.25e-04  
    4   -2273.5149651362      2.16e-04  
    5   -2273.5167943828      2.28e-05  
    6   -2273.5167945561      2.20e-05  
    7   -2273.5168160576      1.39e-06  
    8   -2273.5168161177      8.29e-07  
    9   -2273.5168161449      1.23e-07  
   10   -2273.5168161457      4.35e-08  
   11   -2273.5168161457      8.13e-09  Convergence criterion met
 ---------------------------------------
 SCF time:   CPU 294.32s  wall 77.00s 
 SCF   energy in the final basis set =    -2273.5168161457
 Total energy in the final basis set =    -2273.5168161457

 --------------------------------------------------------------
             Orbital Energies (a.u.) and Symmetries
 --------------------------------------------------------------

 Alpha MOs, Restricted
 -- Occupied --                  
-10.187 -10.187 -10.187 -10.187 -10.187 -10.187 -10.187 -10.187
  1 Ag    2 Ag    3 Ag    1 Au    2 Au    3 Au    4 Au    5 Au                 
-10.187 -10.187 -10.187 -10.187 -10.187 -10.187 -10.187 -10.187
  6 Au    7 Au    8 Au    9 Au    4 Ag    5 Ag    6 Ag    7 Ag                 
-10.187 -10.187 -10.187 -10.187 -10.187 -10.187 -10.187 -10.187
  8 Ag    9 Ag   10 Ag   11 Ag   12 Ag   13 Ag   14 Ag   15 Ag                 
-10.186 -10.186 -10.186 -10.186 -10.186 -10.186 -10.186 -10.186
 10 Au   11 Au   12 Au   13 Au   14 Au   15 Au   16 Au   17 Au                 
-10.186 -10.186 -10.186 -10.185 -10.185 -10.185 -10.185 -10.185
 18 Au   19 Au   20 Au   16 Ag   17 Ag   18 Ag   19 Ag   20 Ag                 
-10.185 -10.185 -10.185 -10.185 -10.185 -10.185 -10.185 -10.185
 21 Ag   22 Ag   23 Ag   24 Ag   21 Au   22 Au   23 Au   24 Au                 
-10.185 -10.185 -10.185 -10.184 -10.184 -10.184 -10.184 -10.184
 25 Au   26 Au   27 Au   25 Ag   26 Ag   27 Ag   28 Ag   29 Ag                 
-10.183 -10.183 -10.183 -10.183  -0.997  -0.978  -0.978  -0.978
 28 Au   29 Au   30 Au   30 Ag   31 Ag   31 Au   32 Au   33 Au                 
 -0.940  -0.940  -0.940  -0.940  -0.940  -0.900  -0.900  -0.900
 32 Ag   33 Ag   34 Ag   35 Ag   36 Ag   34 Au   35 Au   36 Au                 
 -0.868  -0.868  -0.868  -0.868  -0.818  -0.818  -0.818  -0.818
 37 Au   38 Au   39 Au   40 Au   37 Ag   38 Ag   39 Ag   40 Ag                 
 -0.818  -0.800  -0.800  -0.800  -0.800  -0.742  -0.742  -0.741
 41 Ag   42 Ag   43 Ag   44 Ag   45 Ag   41 Au   42 Au   43 Au                 
 -0.741  -0.741  -0.732  -0.732  -0.732  -0.692  -0.692  -0.692
 44 Au   45 Au   46 Au   47 Au   48 Au   49 Au   50 Au   51 Au                 
 -0.652  -0.652  -0.652  -0.652  -0.652  -0.645  -0.645  -0.645
 46 Ag   47 Ag   48 Ag   49 Ag   50 Ag   51 Ag   52 Ag   53 Ag                 
 -0.629  -0.583  -0.583  -0.583  -0.583  -0.556  -0.556  -0.556
 54 Ag   55 Ag   56 Ag   57 Ag   58 Ag   52 Au   53 Au   54 Au                 
 -0.556  -0.556  -0.544  -0.544  -0.544  -0.518  -0.518  -0.518
 55 Au   56 Au   57 Au   58 Au   59 Au   60 Au   61 Au   62 Au                 
 -0.501  -0.490  -0.490  -0.490  -0.490  -0.477  -0.477  -0.477
 59 Ag   63 Au   64 Au   65 Au   66 Au   67 Au   68 Au   69 Au                 
 -0.474  -0.474  -0.474  -0.474  -0.474  -0.458  -0.458  -0.458
 60 Ag   61 Ag   62 Ag   63 Ag   64 Ag   65 Ag   66 Ag   67 Ag                 
 -0.458  -0.445  -0.445  -0.445  -0.432  -0.432  -0.432  -0.432
 68 Ag   69 Ag   70 Ag   71 Ag   72 Ag   73 Ag   74 Ag   75 Ag                 
 -0.432  -0.429  -0.429  -0.429  -0.429  -0.383  -0.383  -0.383
 76 Ag   70 Au   71 Au   72 Au   73 Au   77 Ag   78 Ag   79 Ag                 
 -0.383  -0.383  -0.377  -0.377  -0.376  -0.372  -0.372  -0.372
 80 Ag   81 Ag   74 Au   75 Au   76 Au   77 Au   78 Au   79 Au                 
 -0.372  -0.372  -0.358  -0.358  -0.358  -0.358  -0.288  -0.288
 80 Au   81 Au   82 Au   83 Au   84 Au   85 Au   82 Ag   83 Ag                 
 -0.288  -0.288  -0.288  -0.288  -0.288  -0.288  -0.288  -0.239
 84 Ag   85 Ag   86 Ag   87 Ag   88 Ag   89 Ag   90 Ag   86 Au                 
 -0.239  -0.239  -0.239  -0.239
 87 Au   88 Au   89 Au   90 Au                                                 
 -- Virtual --                   
 -0.131  -0.131  -0.131  -0.088  -0.088  -0.088  -0.041  -0.041
 91 Au   92 Au   93 Au   91 Ag   92 Ag   93 Ag   94 Au   95 Au                 
 -0.041  -0.039  -0.039  -0.039  -0.039  -0.039   0.020   0.020
 96 Au   94 Ag   95 Ag   96 Ag   97 Ag   98 Ag   97 Au   98 Au                 
  0.020   0.020   0.020   0.042   0.042   0.042   0.042   0.067
 99 Au  100 Au  101 Au   99 Ag  100 Ag  101 Ag  102 Ag  102 Au                 
  0.067   0.067   0.067   0.087   0.087   0.087   0.120   0.120
103 Au  104 Au  105 Au  103 Ag  104 Ag  105 Ag  106 Au  107 Au                 
  0.120   0.154   0.154   0.154   0.154   0.154   0.174   0.174
108 Au  106 Ag  107 Ag  108 Ag  109 Ag  110 Ag  111 Ag  112 Ag                 
  0.174   0.196   0.196   0.196   0.201   0.201   0.201   0.201
113 Ag  109 Au  110 Au  111 Au  112 Au  113 Au  114 Au  115 Au                 
  0.238   0.238   0.238   0.238   0.238   0.268   0.268   0.269
114 Ag  115 Ag  116 Ag  117 Ag  118 Ag  119 Ag  120 Ag  121 Ag                 
  0.269   0.282   0.282   0.282   0.282   0.282   0.326   0.326
122 Ag  116 Au  117 Au  118 Au  119 Au  120 Au  121 Au  122 Au                 
  0.326   0.349   0.349   0.349   0.358   0.358   0.358   0.381
123 Au  124 Au  125 Au  126 Au  123 Ag  124 Ag  125 Ag  127 Au                 
  0.381   0.382   0.382   0.382   0.441   0.441   0.441   0.471
128 Au  129 Au  130 Au  131 Au  126 Ag  127 Ag  128 Ag  129 Ag                 
  0.471   0.471   0.471   0.471   0.471   0.471   0.471   0.472
130 Ag  131 Ag  132 Ag  133 Ag  134 Ag  135 Ag  136 Ag  137 Ag                 
  0.481   0.481   0.481   0.481   0.506   0.506   0.507   0.544
132 Au  133 Au  134 Au  135 Au  138 Ag  139 Ag  140 Ag  141 Ag                 
  0.544   0.544   0.544   0.546   0.546   0.546   0.546   0.546
142 Ag  143 Ag  144 Ag  136 Au  137 Au  138 Au  139 Au  140 Au                 
  0.571   0.571   0.571   0.571   0.571   0.603   0.631   0.631
141 Au  142 Au  143 Au  144 Au  145 Au  145 Ag  146 Au  147 Au                 
  0.631   0.643   0.643   0.643   0.644   0.664   0.664   0.665
148 Au  146 Ag  147 Ag  148 Ag  149 Ag  150 Ag  151 Ag  152 Ag                 
  0.665   0.665   0.669   0.669   0.669   0.669   0.681   0.681
153 Ag  154 Ag  149 Au  150 Au  151 Au  152 Au  153 Au  154 Au                 
  0.681   0.682   0.682   0.682   0.691   0.692   0.692   0.692
155 Au  156 Au  157 Au  158 Au  159 Au  160 Au  161 Au  162 Au                 
  0.692   0.696   0.696   0.696   0.696   0.709   0.709   0.709
163 Au  155 Ag  156 Ag  157 Ag  158 Ag  159 Ag  160 Ag  161 Ag                 
  0.709   0.709   0.713   0.713   0.714   0.734   0.735   0.735
162 Ag  163 Ag  164 Ag  165 Ag  166 Ag  164 Au  165 Au  166 Au                 
  0.775   0.775   0.775   0.775   0.790   0.790   0.790   0.790
167 Au  168 Au  169 Au  170 Au  167 Ag  168 Ag  169 Ag  170 Ag                 
  0.790   0.799   0.799   0.799   0.799   0.799   0.799   0.799
171 Ag  172 Ag  173 Ag  174 Ag  175 Ag  171 Au  172 Au  173 Au                 
  0.799   0.799   0.800   0.800   0.800   0.803   0.803   0.803
174 Au  175 Au  176 Au  177 Au  178 Au  176 Ag  177 Ag  178 Ag                 
  0.803   0.803   0.821   0.821   0.821   0.821   0.821   0.821
179 Ag  180 Ag  179 Au  180 Au  181 Au  181 Ag  182 Ag  183 Ag                 
  0.825   0.825   0.825   0.827   0.827   0.827   0.827   0.827
184 Ag  185 Ag  186 Ag  182 Au  183 Au  184 Au  185 Au  186 Au                 
  0.832   0.833   0.833   0.833   0.834   0.834   0.834   0.834
187 Ag  188 Ag  189 Ag  190 Ag  187 Au  188 Au  189 Au  190 Au                 
  0.933   0.933   0.933   0.933   0.933   0.936   0.936   0.936
191 Ag  192 Ag  193 Ag  194 Ag  195 Ag  191 Au  192 Au  193 Au                 
  0.953   0.953   0.954   1.006   1.057   1.057   1.057   1.057
194 Au  195 Au  196 Au  196 Ag  197 Au  198 Au  199 Au  200 Au                 
  1.097   1.097   1.097   1.097   1.097   1.100   1.100   1.100
201 Au  202 Au  203 Au  204 Au  205 Au  197 Ag  198 Ag  199 Ag                 
  1.100   1.100   1.118   1.118   1.118   1.118   1.118   1.120
200 Ag  201 Ag  202 Ag  203 Ag  204 Ag  205 Ag  206 Ag  207 Ag                 
  1.120   1.120   1.120   1.179   1.179   1.179   1.191   1.191
208 Ag  209 Ag  210 Ag  206 Au  207 Au  208 Au  211 Ag  212 Ag                 
  1.192   1.205   1.205   1.206   1.207   1.207   1.207   1.218
213 Ag  209 Au  210 Au  211 Au  214 Ag  215 Ag  216 Ag  212 Au                 
  1.218   1.219   1.219   1.219   1.255   1.255   1.255   1.255
213 Au  214 Au  215 Au  216 Au  217 Au  218 Au  219 Au  220 Au                 
  1.255   1.289   1.289   1.289   1.289   1.293   1.293   1.293
221 Au  217 Ag  218 Ag  219 Ag  220 Ag  222 Au  223 Au  224 Au                 
  1.293   1.311   1.311   1.311   1.311   1.311   1.311   1.311
225 Au  226 Au  227 Au  228 Au  221 Ag  222 Ag  223 Ag  224 Ag                 
  1.311   1.335   1.335   1.335   1.359   1.359   1.359   1.385
225 Ag  226 Ag  227 Ag  228 Ag  229 Ag  230 Ag  231 Ag  232 Ag                 
  1.385   1.385   1.385   1.385   1.403   1.403   1.403   1.403
233 Ag  234 Ag  235 Ag  236 Ag  237 Ag  238 Ag  239 Ag  240 Ag                 
  1.407   1.407   1.407   1.407   1.407   1.417   1.417   1.417
229 Au  230 Au  231 Au  232 Au  233 Au  234 Au  235 Au  236 Au                 
  1.417   1.434   1.434   1.434   1.434   1.434   1.487   1.488
237 Au  238 Au  239 Au  240 Au  241 Au  242 Au  243 Au  244 Au                 
  1.488   1.522   1.522   1.522   1.522   1.528   1.528   1.528
245 Au  246 Au  247 Au  248 Au  249 Au  241 Ag  242 Ag  243 Ag                 
  1.537   1.537   1.537   1.666   1.678   1.679   1.679   1.679
244 Ag  245 Ag  246 Ag  250 Au  247 Ag  248 Ag  249 Ag  250 Ag                 
  1.679   1.681   1.681   1.681   1.681   1.920   1.920   1.920
251 Ag  252 Ag  253 Ag  254 Ag  255 Ag  251 Au  252 Au  253 Au                 
  1.920   1.920   1.964   1.964   1.964   1.965   1.965   1.965
254 Au  255 Au  256 Au  257 Au  258 Au  259 Au  260 Au  261 Au                 
  2.184   2.184   2.184   2.184   2.184   2.262   2.262   2.262
256 Ag  257 Ag  258 Ag  259 Ag  260 Ag  261 Ag  262 Ag  263 Ag                 
  2.533   2.534   2.534   2.534   2.585   2.585   2.585   2.585
264 Ag  265 Ag  266 Ag  267 Ag  262 Au  263 Au  264 Au  265 Au                 
  2.585   3.023   3.023   3.023   3.024   3.247   3.247   3.247
266 Au  267 Au  268 Au  269 Au  270 Au  268 Ag  269 Ag  270 Ag                 

 Beta MOs, Restricted
 -- Occupied --                  
-10.187 -10.187 -10.187 -10.187 -10.187 -10.187 -10.187 -10.187
  1 Ag    2 Ag    3 Ag    1 Au    2 Au    3 Au    4 Au    5 Au                 
-10.187 -10.187 -10.187 -10.187 -10.187 -10.187 -10.187 -10.187
  6 Au    7 Au    8 Au    9 Au    4 Ag    5 Ag    6 Ag    7 Ag                 
-10.187 -10.187 -10.187 -10.187 -10.187 -10.187 -10.187 -10.187
  8 Ag    9 Ag   10 Ag   11 Ag   12 Ag   13 Ag   14 Ag   15 Ag                 
-10.186 -10.186 -10.186 -10.186 -10.186 -10.186 -10.186 -10.186
 10 Au   11 Au   12 Au   13 Au   14 Au   15 Au   16 Au   17 Au                 
-10.186 -10.186 -10.186 -10.185 -10.185 -10.185 -10.185 -10.185
 18 Au   19 Au   20 Au   16 Ag   17 Ag   18 Ag   19 Ag   20 Ag                 
-10.185 -10.185 -10.185 -10.185 -10.185 -10.185 -10.185 -10.185
 21 Ag   22 Ag   23 Ag   24 Ag   21 Au   22 Au   23 Au   24 Au                 
-10.185 -10.185 -10.185 -10.184 -10.184 -10.184 -10.184 -10.184
 25 Au   26 Au   27 Au   25 Ag   26 Ag   27 Ag   28 Ag   29 Ag                 
-10.183 -10.183 -10.183 -10.183  -0.997  -0.978  -0.978  -0.978
 28 Au   29 Au   30 Au   30 Ag   31 Ag   31 Au   32 Au   33 Au                 
 -0.940  -0.940  -0.940  -0.940  -0.940  -0.900  -0.900  -0.900
 32 Ag   33 Ag   34 Ag   35 Ag   36 Ag   34 Au   35 Au   36 Au                 
 -0.868  -0.868  -0.868  -0.868  -0.818  -0.818  -0.818  -0.818
 37 Au   38 Au   39 Au   40 Au   37 Ag   38 Ag   39 Ag   40 Ag                 
 -0.818  -0.800  -0.800  -0.800  -0.800  -0.742  -0.742  -0.741
 41 Ag   42 Ag   43 Ag   44 Ag   45 Ag   41 Au   42 Au   43 Au                 
 -0.741  -0.741  -0.732  -0.732  -0.732  -0.692  -0.692  -0.692
 44 Au   45 Au   46 Au   47 Au   48 Au   49 Au   50 Au   51 Au                 
 -0.652  -0.652  -0.652  -0.652  -0.652  -0.645  -0.645  -0.645
 46 Ag   47 Ag   48 Ag   49 Ag   50 Ag   51 Ag   52 Ag   53 Ag                 
 -0.629  -0.583  -0.583  -0.583  -0.583  -0.556  -0.556  -0.556
 54 Ag   55 Ag   56 Ag   57 Ag   58 Ag   52 Au   53 Au   54 Au                 
 -0.556  -0.556  -0.544  -0.544  -0.544  -0.518  -0.518  -0.518
 55 Au   56 Au   57 Au   58 Au   59 Au   60 Au   61 Au   62 Au                 
 -0.501  -0.490  -0.490  -0.490  -0.490  -0.477  -0.477  -0.477
 59 Ag   63 Au   64 Au   65 Au   66 Au   67 Au   68 Au   69 Au                 
 -0.474  -0.474  -0.474  -0.474  -0.474  -0.458  -0.458  -0.458
 60 Ag   61 Ag   62 Ag   63 Ag   64 Ag   65 Ag   66 Ag   67 Ag                 
 -0.458  -0.445  -0.445  -0.445  -0.432  -0.432  -0.432  -0.432
 68 Ag   69 Ag   70 Ag   71 Ag   72 Ag   73 Ag   74 Ag   75 Ag                 
 -0.432  -0.429  -0.429  -0.429  -0.429  -0.383  -0.383  -0.383
 76 Ag   70 Au   71 Au   72 Au   73 Au   77 Ag   78 Ag   79 Ag                 
 -0.383  -0.383  -0.377  -0.377  -0.376  -0.372  -0.372  -0.372
 80 Ag   81 Ag   74 Au   75 Au   76 Au   77 Au   78 Au   79 Au                 
 -0.372  -0.372  -0.358  -0.358  -0.358  -0.358  -0.288  -0.288
 80 Au   81 Au   82 Au   83 Au   84 Au   85 Au   82 Ag   83 Ag                 
 -0.288  -0.288  -0.288  -0.288  -0.288  -0.288  -0.288  -0.239
 84 Ag   85 Ag   86 Ag   87 Ag   88 Ag   89 Ag   90 Ag   86 Au                 
 -0.239  -0.239  -0.239  -0.239
 87 Au   88 Au   89 Au   90 Au                                                 
 -- Virtual --                   
 -0.131  -0.131  -0.131  -0.088  -0.088  -0.088  -0.041  -0.041
 91 Au   92 Au   93 Au   91 Ag   92 Ag   93 Ag   94 Au   95 Au                 
 -0.041  -0.039  -0.039  -0.039  -0.039  -0.039   0.020   0.020
 96 Au   94 Ag   95 Ag   96 Ag   97 Ag   98 Ag   97 Au   98 Au                 
  0.020   0.020   0.020   0.042   0.042   0.042   0.042   0.067
 99 Au  100 Au  101 Au   99 Ag  100 Ag  101 Ag  102 Ag  102 Au                 
  0.067   0.067   0.067   0.087   0.087   0.087   0.120   0.120
103 Au  104 Au  105 Au  103 Ag  104 Ag  105 Ag  106 Au  107 Au                 
  0.120   0.154   0.154   0.154   0.154   0.154   0.174   0.174
108 Au  106 Ag  107 Ag  108 Ag  109 Ag  110 Ag  111 Ag  112 Ag                 
  0.174   0.196   0.196   0.196   0.201   0.201   0.201   0.201
113 Ag  109 Au  110 Au  111 Au  112 Au  113 Au  114 Au  115 Au                 
  0.238   0.238   0.238   0.238   0.238   0.268   0.268   0.269
114 Ag  115 Ag  116 Ag  117 Ag  118 Ag  119 Ag  120 Ag  121 Ag                 
  0.269   0.282   0.282   0.282   0.282   0.282   0.326   0.326
122 Ag  116 Au  117 Au  118 Au  119 Au  120 Au  121 Au  122 Au                 
  0.326   0.349   0.349   0.349   0.358   0.358   0.358   0.381
123 Au  124 Au  125 Au  126 Au  123 Ag  124 Ag  125 Ag  127 Au                 
  0.381   0.382   0.382   0.382   0.441   0.441   0.441   0.471
128 Au  129 Au  130 Au  131 Au  126 Ag  127 Ag  128 Ag  129 Ag                 
  0.471   0.471   0.471   0.471   0.471   0.471   0.471   0.472
130 Ag  131 Ag  132 Ag  133 Ag  134 Ag  135 Ag  136 Ag  137 Ag                 
  0.481   0.481   0.481   0.481   0.506   0.506   0.507   0.544
132 Au  133 Au  134 Au  135 Au  138 Ag  139 Ag  140 Ag  141 Ag                 
  0.544   0.544   0.544   0.546   0.546   0.546   0.546   0.546
142 Ag  143 Ag  144 Ag  136 Au  137 Au  138 Au  139 Au  140 Au                 
  0.571   0.571   0.571   0.571   0.571   0.603   0.631   0.631
141 Au  142 Au  143 Au  144 Au  145 Au  145 Ag  146 Au  147 Au                 
  0.631   0.643   0.643   0.643   0.644   0.664   0.664   0.665
148 Au  146 Ag  147 Ag  148 Ag  149 Ag  150 Ag  151 Ag  152 Ag                 
  0.665   0.665   0.669   0.669   0.669   0.669   0.681   0.681
153 Ag  154 Ag  149 Au  150 Au  151 Au  152 Au  153 Au  154 Au                 
  0.681   0.682   0.682   0.682   0.691   0.692   0.692   0.692
155 Au  156 Au  157 Au  158 Au  159 Au  160 Au  161 Au  162 Au                 
  0.692   0.696   0.696   0.696   0.696   0.709   0.709   0.709
163 Au  155 Ag  156 Ag  157 Ag  158 Ag  159 Ag  160 Ag  161 Ag                 
  0.709   0.709   0.713   0.713   0.714   0.734   0.735   0.735
162 Ag  163 Ag  164 Ag  165 Ag  166 Ag  164 Au  165 Au  166 Au                 
  0.775   0.775   0.775   0.775   0.790   0.790   0.790   0.790
167 Au  168 Au  169 Au  170 Au  167 Ag  168 Ag  169 Ag  170 Ag                 
  0.790   0.799   0.799   0.799   0.799   0.799   0.799   0.799
171 Ag  172 Ag  173 Ag  174 Ag  175 Ag  171 Au  172 Au  173 Au                 
  0.799   0.799   0.800   0.800   0.800   0.803   0.803   0.803
174 Au  175 Au  176 Au  177 Au  178 Au  176 Ag  177 Ag  178 Ag                 
  0.803   0.803   0.821   0.821   0.821   0.821   0.821   0.821
179 Ag  180 Ag  179 Au  180 Au  181 Au  181 Ag  182 Ag  183 Ag                 
  0.825   0.825   0.825   0.827   0.827   0.827   0.827   0.827
184 Ag  185 Ag  186 Ag  182 Au  183 Au  184 Au  185 Au  186 Au                 
  0.832   0.833   0.833   0.833   0.834   0.834   0.834   0.834
187 Ag  188 Ag  189 Ag  190 Ag  187 Au  188 Au  189 Au  190 Au                 
  0.933   0.933   0.933   0.933   0.933   0.936   0.936   0.936
191 Ag  192 Ag  193 Ag  194 Ag  195 Ag  191 Au  192 Au  193 Au                 
  0.953   0.953   0.954   1.006   1.057   1.057   1.057   1.057
194 Au  195 Au  196 Au  196 Ag  197 Au  198 Au  199 Au  200 Au                 
  1.097   1.097   1.097   1.097   1.097   1.100   1.100   1.100
201 Au  202 Au  203 Au  204 Au  205 Au  197 Ag  198 Ag  199 Ag                 
  1.100   1.100   1.118   1.118   1.118   1.118   1.118   1.120
200 Ag  201 Ag  202 Ag  203 Ag  204 Ag  205 Ag  206 Ag  207 Ag                 
  1.120   1.120   1.120   1.179   1.179   1.179   1.191   1.191
208 Ag  209 Ag  210 Ag  206 Au  207 Au  208 Au  211 Ag  212 Ag                 
  1.192   1.205   1.205   1.206   1.207   1.207   1.207   1.218
213 Ag  209 Au  210 Au  211 Au  214 Ag  215 Ag  216 Ag  212 Au                 
  1.218   1.219   1.219   1.219   1.255   1.255   1.255   1.255
213 Au  214 Au  215 Au  216 Au  217 Au  218 Au  219 Au  220 Au                 
  1.255   1.289   1.289   1.289   1.289   1.293   1.293   1.293
221 Au  217 Ag  218 Ag  219 Ag  220 Ag  222 Au  223 Au  224 Au                 
  1.293   1.311   1.311   1.311   1.311   1.311   1.311   1.311
225 Au  226 Au  227 Au  228 Au  221 Ag  222 Ag  223 Ag  224 Ag                 
  1.311   1.335   1.335   1.335   1.359   1.359   1.359   1.385
225 Ag  226 Ag  227 Ag  228 Ag  229 Ag  230 Ag  231 Ag  232 Ag                 
  1.385   1.385   1.385   1.385   1.403   1.403   1.403   1.403
233 Ag  234 Ag  235 Ag  236 Ag  237 Ag  238 Ag  239 Ag  240 Ag                 
  1.407   1.407   1.407   1.407   1.407   1.417   1.417   1.417
229 Au  230 Au  231 Au  232 Au  233 Au  234 Au  235 Au  236 Au                 
  1.417   1.434   1.434   1.434   1.434   1.434   1.487   1.488
237 Au  238 Au  239 Au  240 Au  241 Au  242 Au  243 Au  244 Au                 
  1.488   1.522   1.522   1.522   1.522   1.528   1.528   1.528
245 Au  246 Au  247 Au  248 Au  249 Au  241 Ag  242 Ag  243 Ag                 
  1.537   1.537   1.537   1.666   1.678   1.679   1.679   1.679
244 Ag  245 Ag  246 Ag  250 Au  247 Ag  248 Ag  249 Ag  250 Ag                 
  1.679   1.681   1.681   1.681   1.681   1.920   1.920   1.920
251 Ag  252 Ag  253 Ag  254 Ag  255 Ag  251 Au  252 Au  253 Au                 
  1.920   1.920   1.964   1.964   1.964   1.965   1.965   1.965
254 Au  255 Au  256 Au  257 Au  258 Au  259 Au  260 Au  261 Au                 
  2.184   2.184   2.184   2.184   2.184   2.262   2.262   2.262
256 Ag  257 Ag  258 Ag  259 Ag  260 Ag  261 Ag  262 Ag  263 Ag                 
  2.533   2.534   2.534   2.534   2.585   2.585   2.585   2.585
264 Ag  265 Ag  266 Ag  267 Ag  262 Au  263 Au  264 Au  265 Au                 
  2.585   3.023   3.023   3.023   3.024   3.247   3.247   3.247
266 Au  267 Au  268 Au  269 Au  270 Au  268 Ag  269 Ag  270 Ag                 
 --------------------------------------------------------------

          Ground-State Mulliken Net Atomic Charges

     Atom                 Charge (a.u.)
  ----------------------------------------
      1 C                     0.000418
      2 C                     0.000201
      3 C                     0.000201
      4 C                     0.000418
      5 C                    -0.000507
      6 C                     0.000014
      7 C                     0.000014
      8 C                    -0.000507
      9 C                     0.000016
     10 C                     0.000004
     11 C                     0.000004
     12 C                     0.000016
     13 C                    -0.000010
     14 C                    -0.000160
     15 C                    -0.000070
     16 C                    -0.000711
     17 C                    -0.000711
     18 C                    -0.000070
     19 C                    -0.000160
     20 C                    -0.000010
     21 C                    -0.000002
     22 C                     0.000487
     23 C                    -0.000199
     24 C                     0.000419
     25 C                     0.000419
     26 C                    -0.000199
     27 C                     0.000487
     28 C                    -0.000002
     29 C                    -0.000293
     30 C                     0.000343
     31 C                    -0.000109
     32 C                     0.000085
     33 C                     0.000085
     34 C                    -0.000109
     35 C                     0.000343
     36 C                    -0.000293
     37 C                    -0.000033
     38 C                    -0.000164
     39 C                     0.000118
     40 C                     0.000629
     41 C                     0.000629
     42 C                     0.000118
     43 C                    -0.000164
     44 C                    -0.000033
     45 C                     0.000234
     46 C                    -0.000278
     47 C                    -0.000272
     48 C                    -0.000136
     49 C                    -0.000136
     50 C                    -0.000272
     51 C                    -0.000278
     52 C                     0.000234
     53 C                    -0.000082
     54 C                     0.000087
     55 C                     0.000246
     56 C                    -0.000272
     57 C                    -0.000272
     58 C                     0.000246
     59 C                     0.000087
     60 C                    -0.000082
  ----------------------------------------
  Sum of atomic charges =     0.000000

 -----------------------------------------------------------------
                    Cartesian Multipole Moments
 -----------------------------------------------------------------
    Charge (ESU x 10^10)
                 0.0000
    Dipole Moment (Debye)
         X      -0.0000      Y      -0.0000      Z       0.0000
       Tot       0.0000
    Quadrupole Moments (Debye-Ang)
        XX    -338.3747     XY       0.0006     YY    -338.3610
        XZ       0.0029     YZ      -0.0002     ZZ    -338.3640
    Octopole Moments (Debye-Ang^2)
       XXX      -0.0000    XXY       0.0000    XYY      -0.0000
       YYY      -0.0000    XXZ      -0.0000    XYZ      -0.0000
       YYZ       0.0000    XZZ       0.0000    YZZ      -0.0000
       ZZZ       0.0000
    Hexadecapole Moments (Debye-Ang^3)
      XXXX   -8812.4905   XXXY       0.0269   XXYY   -2937.1612
      XYYY      -0.0077   YYYY   -8810.5662   XXXZ      -0.0159
      XXYZ       0.0344   XYYZ       0.0403   YYYZ       0.0059
      XXZZ   -2936.9097   XYZZ       0.0127   YYZZ   -2936.6826
      XZZZ       0.0747   YZZZ      -0.0314   ZZZZ   -8809.3371
 -----------------------------------------------------------------
 Calculating analytic gradient of the SCF energy
 Gradient of SCF Energy
            1           2           3           4           5           6
    1  -0.0051409  -0.0017168   0.0017168   0.0051409   0.0013833  -0.0017006
    2  -0.0009648  -0.0022950   0.0022950   0.0009648   0.0047512   0.0029067
    3  -0.0007023  -0.0036139   0.0036139   0.0007023  -0.0017376  -0.0035329
            7           8           9          10          11          12
    1   0.0017006  -0.0013833   0.0032227   0.0029217  -0.0029217  -0.0032227
    2  -0.0029067  -0.0047512  -0.0030201   0.0000072  -0.0000072   0.0030201
    3   0.0035329   0.0017376  -0.0020246  -0.0038654   0.0038654   0.0020246
           13          14          15          16          17          18
    1  -0.0018499  -0.0013616  -0.0028183  -0.0023818   0.0023818   0.0028183
    2   0.0015032  -0.0044801   0.0019099  -0.0046343   0.0046343  -0.0019099
    3  -0.0043204  -0.0001181  -0.0033126   0.0008472  -0.0008472   0.0033126
           19          20          21          22          23          24
    1   0.0013616   0.0018499   0.0020999  -0.0032053   0.0027118  -0.0028063
    2   0.0044801  -0.0015032   0.0008260   0.0034379   0.0012330   0.0040128
    3   0.0001181   0.0043204  -0.0046053   0.0003697  -0.0043264   0.0008123
           25          26          27          28          29          30
    1   0.0028063  -0.0027118   0.0032053  -0.0020999  -0.0003726   0.0047223
    2  -0.0040128  -0.0012330  -0.0034379  -0.0008260  -0.0021694   0.0005912
    3  -0.0008123   0.0043264  -0.0003697   0.0046053  -0.0043909   0.0002345
           31          32          33          34          35          36
    1  -0.0002888   0.0047877  -0.0047877   0.0002888  -0.0047223   0.0003726
    2  -0.0033135  -0.0004054   0.0004054   0.0033135  -0.0005912   0.0021694
    3  -0.0038393   0.0003189  -0.0003189   0.0038393  -0.0002345   0.0043909
           37          38          39          40          41          42
    1  -0.0014728  -0.0018259  -0.0051569  -0.0043026   0.0043026   0.0051569
    2  -0.0018154  -0.0030947  -0.0007047  -0.0019688   0.0019688   0.0007047
    3  -0.0041949  -0.0038836  -0.0013560  -0.0002788   0.0002788   0.0013560
           43          44          45          46          47          48
    1   0.0018259   0.0014728  -0.0016041  -0.0024784   0.0024198   0.0009682
    2   0.0030947   0.0018154   0.0026123   0.0029599   0.0038835   0.0048545
    3   0.0038836   0.0041949  -0.0039797  -0.0031893  -0.0016860  -0.0011703
           49          50          51          52          53          54
    1  -0.0009682  -0.0024198   0.0024784   0.0016041   0.0018427   0.0032498
    2  -0.0048545  -0.0038835  -0.0029599  -0.0026123  -0.0004671   0.0005312
    3   0.0011703   0.0016860   0.0031893   0.0039797  -0.0044146  -0.0037230
           55          56          57          58          59          60
    1   0.0025089   0.0038784  -0.0038784  -0.0025089  -0.0032498  -0.0018427
    2  -0.0035385  -0.0030680   0.0030680   0.0035385  -0.0005312   0.0004671
    3  -0.0018400  -0.0006360   0.0006360   0.0018400   0.0037230   0.0044146
 Max gradient component =       5.157E-03
 RMS gradient           =       2.864E-03
 Gradient time:  CPU 3712.68 s  wall 466.00 s

 *****************************************************
             Starting BFGS Algorithm
 *****************************************************
            LIBOPT3 RUN PARAMETERS

  Geometry Optimization Coordinates :
	Delocalized Natural Internal Coordinates

  Step Length Selection Method :
	Eigenvector Following Algorithm

  Convergence Criteria :
	Max Gradient Component    	3.00000000e-04
	Max Displacement Component	1.20000000e-03
	Absolute Energy Difference	1.00000000e-06

  Initial Hessian :
	Approximate Hessian - Simple Internal Coordinate Scaled

  Type of Verification :
	Verify with final updated Hessian
 *****************************************************

	OPTIMIZATION CYCLE:	1

 Scaling Magnitude of Eigenvalues
 	Minimum: -25.00000000	 Maximum: 25.00000000
 174 Hessian Eigenvalues to form next step
   0.10427222   0.10427266   0.10427359   0.10437177   0.10437299
   0.10437329   0.10437441   0.10455740   0.10455765   0.10455883
   0.10456107   0.10463089   0.10463385   0.10463451   0.10463652
   0.10463904   0.10492187   0.10492510   0.10492931   0.10500013
   0.10500079   0.10500346   0.10500801   0.10500855   0.10561775
   0.10561945   0.10562404   0.10623290   0.10624114   0.10624216
   0.10984901   0.10985127   0.10985804   0.10986258   0.10986977
   0.11204767   0.11204952   0.11205308   0.11205942   0.11206123
   0.11398729   0.11400134   0.11400178   0.11401489   0.12341053
   0.12342290   0.12342485   0.12343460   0.12653317   0.12654909
   0.12656726   0.14275670   0.14547291   0.14548128   0.14548379
   0.14793836   0.14795133   0.14795723   0.14796710   0.14798027
   0.14827134   0.14828488   0.14830884   0.14895938   0.14896353
   0.14896730   0.14897014   0.14897685   0.15138850   0.15139115
   0.15139746   0.15140261   0.15709567   0.15710074   0.15710187
   0.15710662   0.15733378   0.15733669   0.15733965   0.16308127
   0.16309059   0.16309613   0.16310491   0.16311805   0.23872864
   0.23873458   0.23874409   0.23875306   0.24117204   0.24119512
   0.24120921   0.24122830   0.25040283   0.25042912   0.25044194
   0.25044999   0.25047975   0.25914665   0.25916275   0.25917754
   0.27471703   0.27473652   0.27474505   0.27475001   0.27475828
   0.29398076   0.29399455   0.29400803   0.29402866   0.29403343
   0.38228068   0.38229479   0.38230180   0.39362706   0.39363876
   0.39365244   0.45155021   0.45155199   0.45155572   0.45156115
   0.45156213   0.45317778   0.45318904   0.45321111   0.45576575
   0.45576982   0.45577374   0.45577648   0.45578027   0.46677312
   0.46677412   0.46677852   0.46678227   0.46758322   0.46759132
   0.46759687   0.46760780   0.47003999   0.47004407   0.47004995
   0.47674567   0.47675020   0.47675567   0.47676088   0.47676428
   0.49999998   0.49999998   0.49999998   0.49999998   0.49999998
   0.49999999   0.49999999   0.49999999   0.49999999   0.49999999
   0.49999999   0.49999999   0.49999999   0.49999999   0.49999999
   0.50000000   0.50000000   0.50000000   0.50000000   0.50000000
   0.50000000   0.50000000   0.50000000   0.50000000   0.50000000
   0.50000000   0.50000000   0.50000000   0.50000000

 Minimum Search taking a RFO step
 Searching for Lambda that minimizes along all modes
	Value of Lambda   -0.00828691
	Norm  of Stepsize  0.12798810
	RMS   of Stepsize  0.00970275

	Performing Iterative Coordinate Back-Transformation

	  Starting from Previous Position

	  iter:	0	rms: 1.8967503689e-02	maxdev: 3.2880512800e-02
	  iter:	1	rms: 4.8453785000e-06	maxdev: 1.3906347439e-05
	  iter:	2	rms: 1.0469397154e-11	maxdev: 2.5648285683e-11	 Success!

	Finished Iterative Coordinate Back-Transformation
 ----------------------------------------------------------------
             Standard Nuclear Orientation (Angstroms)
    I     Atom           X                Y                Z
 ----------------------------------------------------------------
    1      C       2.0714460351     1.7198060897     2.3158881617
    2      C       3.0189363667     1.1900898955     1.4452918333
    3      C      -3.0189363666    -1.1900898952    -1.4452918335
    4      C      -2.0714460350    -1.7198060897    -2.3158881617
    5      C       0.7026451816    -2.5822756840     2.3372660952
    6      C      -0.3140687351    -3.1637491319     1.5854966316
    7      C       0.3140687350     3.1637491320    -1.5854966318
    8      C      -0.7026451818     2.5822756842    -2.3372660953
    9      C      -2.3327027578     0.7536406544     2.5722116049
   10      C      -2.4106041205     1.9013093761     1.7886758456
   11      C       2.4106041205    -1.9013093762    -1.7886758455
   12      C       2.3327027579    -0.7536406545    -2.5722116048
   13      C       1.3122674471     0.8378114628     3.1932999786
   14      C       1.1804001660     2.7816113952     1.8659656725
   15      C       3.2516686861    -0.2476865526     1.4103531806
   16      C       3.1199070562     1.6969228330     0.0825976999
   17      C      -3.1199070561    -1.6969228327    -0.0825976998
   18      C      -3.2516686860     0.2476865528    -1.4103531808
   19      C      -1.1804001659    -2.7816113954    -1.8659656726
   20      C      -1.3122674472    -0.8378114628    -3.1932999785
   21      C       0.4069693778    -1.4572471845     3.2148759126
   22      C       2.0122829246    -2.3552504430     1.7391433874
   23      C      -1.6737589487    -2.6472944512     1.6764539407
   24      C      -0.0688046828    -3.5452108467     0.2005758352
   25      C       0.0688046830     3.5452108466    -0.2005758353
   26      C       1.6737589486     2.6472944513    -1.6764539406
   27      C      -2.0122829247     2.3552504432    -1.7391433877
   28      C      -0.4069693781     1.4572471844    -3.2148759125
   29      C      -1.1243578551     0.4739160057     3.3376282296
   30      C      -2.8467587566    -0.5113275019     2.0637327935
   31      C      -1.2830684543     2.8229109788     1.7328677424
   32      C      -3.0058582485     1.8383805282     0.4599733131
   33      C       3.0058582486    -1.8383805282    -0.4599733130
   34      C       1.2830684543    -2.8229109790    -1.7328677424
   35      C       2.8467587567     0.5113275018    -2.0637327934
   36      C       1.1243578550    -0.4739160058    -3.3376282293
   37      C       1.5343447514    -0.5356980106     3.1597694588
   38      C       1.2772670438     3.2652275801     0.5646481508
   39      C       2.5264221187    -1.0902861265     2.2477188469
   40      C       2.2686773630     2.7105766644    -0.3478024018
   41      C      -2.2686773629    -2.7105766642     0.3478024020
   42      C      -2.5264221187     1.0902861267    -2.2477188471
   43      C      -1.2772670436    -3.2652275800    -0.5646481509
   44      C      -1.5343447516     0.5356980106    -3.1597694588
   45      C      -0.8915178316    -0.9643257375     3.3016479953
   46      C       2.2466645998    -2.7207878698     0.4167244724
   47      C      -1.9563337628    -1.5729479120     2.5148596153
   48      C       1.1818617080    -3.3294221863    -0.3700078297
   49      C      -1.1818617078     3.3294221861     0.3700078296
   50      C       1.9563337627     1.5729479119    -2.5148596152
   51      C      -2.2466645995     2.7207878698    -0.4167244725
   52      C       0.8915178313     0.9643257374    -3.3016479951
   53      C      -0.0472913114     1.3542932771     3.2842369888
   54      C      -3.4158695081    -0.5717062324     0.7950263976
   55      C      -0.1290695004     2.5551229696     2.4632129376
   56      C      -3.4973208848     0.6299282980    -0.0258185234
   57      C       3.4973208851    -0.6299282980     0.0258185234
   58      C       0.1290695004    -2.5551229699    -2.4632129376
   59      C       3.4158695081     0.5717062325    -0.7950263974
   60      C       0.0472913112    -1.3542932772    -3.2842369886
 ----------------------------------------------------------------
 Molecular Point Group                 Ci    NOp =  2
 Largest Abelian Subgroup              Ci    NOp =  2
 Nuclear Repulsion Energy =        8320.33550310 hartrees
 There are      180 alpha and      180 beta electrons
 Applying Cartesian multipole field
    Component          Value
    ---------          -----
     (2,0,0)        1.00000E-11
     (0,2,0)        2.00000E-11
     (0,0,2)       -3.00000E-11
 Requested basis set is 3-21G(d)
 There are 180 shells and 540 basis functions
 A cutoff of  1.0D-14 yielded  10770 shell pairs
 There are    118230 function pairs
 Smallest overlap matrix eigenvalue = 1.19E-03
 Guess MOs from SCF MO coefficient file

 -----------------------------------------------------------------------
  General SCF calculation program by
  Eric Jon Sundstrom, Paul Horn, Yuezhi Mao, Dmitri Zuev, Alec White,
  David Stuck, Shaama M.S., Shane Yost, Joonho Lee, David Small,
  Daniel Levine, Susi Lehtola, Hugh Burton, Evgeny Epifanovsky,
  Bang C. Huynh
 -----------------------------------------------------------------------
 Exchange:     0.2000 Hartree-Fock + 0.0800 Slater + 0.7200 B88
 Correlation:  0.1900 VWN1RPA + 0.8100 LYP
 Using SG-1 standard quadrature grid
 A restricted SCF calculation will be
 performed using DIIS
 SCF converges when DIIS error is below 1.0e-08
 ---------------------------------------
  Cycle       Energy         DIIS error
 ---------------------------------------
    1   -2273.5206187129      1.90e-04  
    2   -2273.5212695070      6.48e-05  
    3   -2273.5214044876      2.83e-05  
    4   -2273.5214354888      5.91e-06  
    5   -2273.5214358790      5.01e-06  
    6   -2273.5214369824      5.75e-07  
    7   -2273.5214369949      1.56e-07  
    8   -2273.5214369959      4.11e-08  
    9   -2273.5214369960      5.56e-09  Convergence criterion met
 ---------------------------------------
 SCF time:   CPU 321.41s  wall 69.00s 
 SCF   energy in the final basis set =    -2273.5214369960
 Total energy in the final basis set =    -2273.5214369960

 --------------------------------------------------------------
             Orbital Energies (a.u.) and Symmetries
 --------------------------------------------------------------

 Alpha MOs, Restricted
 -- Occupied --                  
-10.190 -10.190 -10.190 -10.190 -10.190 -10.190 -10.190 -10.190
  1 Ag    2 Ag    3 Ag    1 Au    2 Au    3 Au    4 Au    5 Au                 
-10.190 -10.190 -10.190 -10.190 -10.190 -10.190 -10.190 -10.190
  6 Au    7 Au    8 Au    4 Ag    9 Au    5 Ag    6 Ag    7 Ag                 
-10.190 -10.190 -10.190 -10.189 -10.189 -10.189 -10.189 -10.189
  8 Ag    9 Ag   10 Ag   11 Ag   12 Ag   13 Ag   14 Ag   15 Ag                 
-10.189 -10.189 -10.189 -10.189 -10.189 -10.189 -10.189 -10.189
 10 Au   11 Au   12 Au   13 Au   14 Au   15 Au   16 Au   17 Au                 
-10.189 -10.189 -10.189 -10.188 -10.188 -10.188 -10.188 -10.188
 18 Au   19 Au   20 Au   16 Ag   17 Ag   18 Ag   19 Ag   20 Ag                 
-10.188 -10.188 -10.188 -10.188 -10.188 -10.188 -10.188 -10.188
 21 Ag   22 Ag   23 Ag   24 Ag   21 Au   22 Au   23 Au   24 Au                 
-10.187 -10.187 -10.187 -10.187 -10.187 -10.187 -10.187 -10.187
 25 Au   26 Au   27 Au   25 Ag   26 Ag   27 Ag   28 Ag   29 Ag                 
-10.186 -10.186 -10.186 -10.186  -0.993  -0.974  -0.973  -0.973
 28 Au   29 Au   30 Au   30 Ag   31 Ag   31 Au   32 Au   33 Au                 
 -0.936  -0.936  -0.936  -0.936  -0.936  -0.896  -0.896  -0.896
 32 Ag   33 Ag   34 Ag   35 Ag   36 Ag   34 Au   35 Au   36 Au                 
 -0.866  -0.866  -0.866  -0.866  -0.815  -0.815  -0.815  -0.815
 37 Au   38 Au   39 Au   40 Au   37 Ag   38 Ag   39 Ag   40 Ag                 
 -0.815  -0.798  -0.798  -0.798  -0.798  -0.741  -0.741  -0.741
 41 Ag   42 Ag   43 Ag   44 Ag   45 Ag   41 Au   42 Au   43 Au                 
 -0.740  -0.740  -0.729  -0.729  -0.729  -0.690  -0.690  -0.690
 44 Au   45 Au   46 Au   47 Au   48 Au   49 Au   50 Au   51 Au                 
 -0.651  -0.651  -0.651  -0.651  -0.651  -0.644  -0.644  -0.644
 46 Ag   47 Ag   48 Ag   49 Ag   50 Ag   51 Ag   52 Ag   53 Ag                 
 -0.625  -0.581  -0.581  -0.581  -0.581  -0.556  -0.556  -0.556
 54 Ag   55 Ag   56 Ag   57 Ag   58 Ag   52 Au   53 Au   54 Au                 
 -0.556  -0.556  -0.542  -0.542  -0.542  -0.517  -0.517  -0.517
 55 Au   56 Au   57 Au   58 Au   59 Au   60 Au   61 Au   62 Au                 
 -0.498  -0.489  -0.489  -0.489  -0.489  -0.475  -0.475  -0.475
 59 Ag   63 Au   64 Au   65 Au   66 Au   67 Au   68 Au   69 Au                 
 -0.473  -0.473  -0.473  -0.473  -0.473  -0.458  -0.458  -0.458
 60 Ag   61 Ag   62 Ag   63 Ag   64 Ag   65 Ag   66 Ag   67 Ag                 
 -0.458  -0.444  -0.444  -0.444  -0.430  -0.430  -0.430  -0.430
 68 Ag   69 Ag   70 Ag   71 Ag   72 Ag   73 Ag   74 Ag   75 Ag                 
 -0.430  -0.429  -0.429  -0.429  -0.429  -0.383  -0.383  -0.383
 76 Ag   70 Au   71 Au   72 Au   73 Au   77 Ag   78 Ag   79 Ag                 
 -0.383  -0.383  -0.375  -0.375  -0.375  -0.371  -0.371  -0.371
 80 Ag   81 Ag   74 Au   75 Au   76 Au   77 Au   78 Au   79 Au                 
 -0.371  -0.371  -0.357  -0.357  -0.357  -0.357  -0.288  -0.288
 80 Au   81 Au   82 Au   83 Au   84 Au   85 Au   82 Ag   83 Ag                 
 -0.288  -0.288  -0.288  -0.288  -0.288  -0.288  -0.288  -0.239
 84 Ag   85 Ag   86 Ag   87 Ag   88 Ag   89 Ag   90 Ag   86 Au                 
 -0.239  -0.239  -0.239  -0.239
 87 Au   88 Au   89 Au   90 Au                                                 
 -- Virtual --                   
 -0.132  -0.132  -0.132  -0.090  -0.090  -0.090  -0.044  -0.043
 91 Au   92 Au   93 Au   91 Ag   92 Ag   93 Ag   94 Au   95 Au                 
 -0.043  -0.042  -0.042  -0.042  -0.042  -0.042   0.017   0.017
 96 Au   94 Ag   95 Ag   96 Ag   97 Ag   98 Ag   97 Au   98 Au                 
  0.017   0.017   0.017   0.038   0.038   0.038   0.038   0.061
 99 Au  100 Au  101 Au   99 Ag  100 Ag  101 Ag  102 Ag  102 Au                 
  0.061   0.061   0.061   0.081   0.081   0.082   0.116   0.116
103 Au  104 Au  105 Au  103 Ag  104 Ag  105 Ag  106 Au  107 Au                 
  0.116   0.149   0.149   0.149   0.149   0.149   0.169   0.169
108 Au  106 Ag  107 Ag  108 Ag  109 Ag  110 Ag  111 Ag  112 Ag                 
  0.169   0.191   0.191   0.191   0.197   0.197   0.197   0.197
113 Ag  109 Au  110 Au  111 Au  112 Au  113 Au  114 Au  115 Au                 
  0.233   0.233   0.233   0.233   0.233   0.263   0.263   0.263
114 Ag  115 Ag  116 Ag  117 Ag  118 Ag  119 Ag  120 Ag  121 Ag                 
  0.263   0.275   0.275   0.275   0.275   0.275   0.320   0.320
122 Ag  116 Au  117 Au  118 Au  119 Au  120 Au  121 Au  122 Au                 
  0.320   0.343   0.343   0.343   0.350   0.350   0.350   0.372
123 Au  124 Au  125 Au  126 Au  123 Ag  124 Ag  125 Ag  127 Au                 
  0.372   0.372   0.372   0.372   0.432   0.432   0.432   0.461
128 Au  129 Au  130 Au  131 Au  126 Ag  127 Ag  128 Ag  129 Ag                 
  0.461   0.461   0.461   0.461   0.461   0.461   0.461   0.461
130 Ag  131 Ag  132 Ag  133 Ag  134 Ag  135 Ag  136 Ag  137 Ag                 
  0.469   0.469   0.469   0.469   0.494   0.494   0.494   0.535
132 Au  133 Au  134 Au  135 Au  138 Ag  139 Ag  140 Ag  141 Ag                 
  0.535   0.535   0.535   0.535   0.536   0.536   0.536   0.536
142 Ag  143 Ag  144 Ag  136 Au  137 Au  138 Au  139 Au  140 Au                 
  0.559   0.559   0.559   0.559   0.559   0.603   0.631   0.631
141 Au  142 Au  143 Au  144 Au  145 Au  145 Ag  146 Ag  147 Ag                 
  0.631   0.631   0.631   0.631   0.645   0.661   0.661   0.661
148 Ag  146 Au  147 Au  148 Au  149 Ag  149 Au  150 Au  151 Au                 
  0.661   0.664   0.664   0.664   0.664   0.664   0.677   0.677
152 Au  150 Ag  151 Ag  152 Ag  153 Ag  154 Ag  153 Au  154 Au                 
  0.677   0.678   0.678   0.679   0.679   0.686   0.686   0.686
155 Au  156 Au  157 Au  158 Au  159 Au  160 Au  161 Au  162 Au                 
  0.686   0.691   0.691   0.691   0.691   0.701   0.702   0.702
163 Au  155 Ag  156 Ag  157 Ag  158 Ag  159 Ag  160 Ag  161 Ag                 
  0.706   0.706   0.706   0.706   0.706   0.733   0.733   0.733
162 Ag  163 Ag  164 Ag  165 Ag  166 Ag  164 Au  165 Au  166 Au                 
  0.770   0.770   0.770   0.770   0.787   0.787   0.787   0.787
167 Au  168 Au  169 Au  170 Au  167 Ag  168 Ag  169 Ag  170 Ag                 
  0.787   0.795   0.795   0.796   0.796   0.797   0.797   0.797
171 Ag  172 Ag  173 Ag  174 Ag  175 Ag  171 Au  172 Au  173 Au                 
  0.797   0.798   0.798   0.798   0.798   0.801   0.801   0.801
174 Au  175 Au  176 Au  177 Au  178 Au  176 Ag  177 Ag  178 Ag                 
  0.801   0.801   0.819   0.819   0.819   0.820   0.820   0.820
179 Ag  180 Ag  179 Au  180 Au  181 Au  181 Ag  182 Ag  183 Ag                 
  0.824   0.824   0.824   0.825   0.825   0.825   0.825   0.825
184 Ag  185 Ag  186 Ag  182 Au  183 Au  184 Au  185 Au  186 Au                 
  0.831   0.831   0.831   0.831   0.833   0.833   0.833   0.833
187 Ag  188 Ag  189 Ag  190 Ag  187 Au  188 Au  189 Au  190 Au                 
  0.928   0.928   0.928   0.928   0.928   0.934   0.934   0.934
191 Ag  192 Ag  193 Ag  194 Ag  195 Ag  191 Au  192 Au  193 Au                 
  0.947   0.947   0.947   1.008   1.059   1.060   1.060   1.060
194 Au  195 Au  196 Au  196 Ag  197 Au  198 Au  199 Au  200 Au                 
  1.100   1.100   1.100   1.100   1.100   1.102   1.102   1.102
201 Au  202 Au  203 Au  204 Au  205 Au  197 Ag  198 Ag  199 Ag                 
  1.102   1.102   1.121   1.121   1.121   1.121   1.122   1.122
200 Ag  201 Ag  202 Ag  203 Ag  204 Ag  205 Ag  206 Ag  207 Ag                 
  1.122   1.122   1.122   1.180   1.181   1.181   1.184   1.185
208 Ag  209 Ag  210 Ag  206 Au  207 Au  208 Au  211 Ag  212 Ag                 
  1.185   1.200   1.201   1.201   1.205   1.205   1.205   1.213
213 Ag  214 Ag  215 Ag  216 Ag  209 Au  210 Au  211 Au  212 Au                 
  1.213   1.213   1.213   1.213   1.250   1.250   1.250   1.250
213 Au  214 Au  215 Au  216 Au  217 Au  218 Au  219 Au  220 Au                 
  1.250   1.284   1.284   1.284   1.284   1.291   1.291   1.291
221 Au  217 Ag  218 Ag  219 Ag  220 Ag  222 Au  223 Au  224 Au                 
  1.291   1.307   1.307   1.307   1.307   1.307   1.309   1.309
225 Au  221 Ag  222 Ag  223 Ag  224 Ag  225 Ag  226 Au  227 Au                 
  1.309   1.333   1.333   1.333   1.355   1.355   1.355   1.384
228 Au  226 Ag  227 Ag  228 Ag  229 Ag  230 Ag  231 Ag  232 Ag                 
  1.385   1.385   1.385   1.385   1.401   1.401   1.401   1.401
233 Ag  234 Ag  235 Ag  236 Ag  237 Ag  238 Ag  239 Ag  229 Au                 
  1.401   1.401   1.401   1.401   1.401   1.413   1.413   1.413
230 Au  240 Ag  231 Au  232 Au  233 Au  234 Au  235 Au  236 Au                 
  1.413   1.431   1.431   1.431   1.431   1.431   1.484   1.485
237 Au  238 Au  239 Au  240 Au  241 Au  242 Au  243 Au  244 Au                 
  1.485   1.521   1.521   1.521   1.522   1.523   1.523   1.523
245 Au  246 Au  247 Au  248 Au  249 Au  241 Ag  242 Ag  243 Ag                 
  1.530   1.530   1.530   1.659   1.674   1.674   1.675   1.675
244 Ag  245 Ag  246 Ag  250 Au  247 Ag  248 Ag  249 Ag  250 Ag                 
  1.675   1.676   1.677   1.677   1.677   1.907   1.907   1.908
251 Ag  252 Ag  253 Ag  254 Ag  255 Ag  251 Au  252 Au  253 Au                 
  1.908   1.908   1.956   1.956   1.957   1.960   1.960   1.961
254 Au  255 Au  256 Au  257 Au  258 Au  259 Au  260 Au  261 Au                 
  2.169   2.169   2.170   2.170   2.170   2.242   2.243   2.243
256 Ag  257 Ag  258 Ag  259 Ag  260 Ag  261 Ag  262 Ag  263 Ag                 
  2.516   2.516   2.517   2.518   2.560   2.560   2.560   2.560
264 Ag  265 Ag  266 Ag  267 Ag  262 Au  263 Au  264 Au  265 Au                 
  2.560   3.000   3.001   3.002   3.002   3.217   3.218   3.218
266 Au  267 Au  268 Au  269 Au  270 Au  268 Ag  269 Ag  270 Ag                 

 Beta MOs, Restricted
 -- Occupied --                  
-10.190 -10.190 -10.190 -10.190 -10.190 -10.190 -10.190 -10.190
  1 Ag    2 Ag    3 Ag    1 Au    2 Au    3 Au    4 Au    5 Au                 
-10.190 -10.190 -10.190 -10.190 -10.190 -10.190 -10.190 -10.190
  6 Au    7 Au    8 Au    4 Ag    9 Au    5 Ag    6 Ag    7 Ag                 
-10.190 -10.190 -10.190 -10.189 -10.189 -10.189 -10.189 -10.189
  8 Ag    9 Ag   10 Ag   11 Ag   12 Ag   13 Ag   14 Ag   15 Ag                 
-10.189 -10.189 -10.189 -10.189 -10.189 -10.189 -10.189 -10.189
 10 Au   11 Au   12 Au   13 Au   14 Au   15 Au   16 Au   17 Au                 
-10.189 -10.189 -10.189 -10.188 -10.188 -10.188 -10.188 -10.188
 18 Au   19 Au   20 Au   16 Ag   17 Ag   18 Ag   19 Ag   20 Ag                 
-10.188 -10.188 -10.188 -10.188 -10.188 -10.188 -10.188 -10.188
 21 Ag   22 Ag   23 Ag   24 Ag   21 Au   22 Au   23 Au   24 Au                 
-10.187 -10.187 -10.187 -10.187 -10.187 -10.187 -10.187 -10.187
 25 Au   26 Au   27 Au   25 Ag   26 Ag   27 Ag   28 Ag   29 Ag                 
-10.186 -10.186 -10.186 -10.186  -0.993  -0.974  -0.973  -0.973
 28 Au   29 Au   30 Au   30 Ag   31 Ag   31 Au   32 Au   33 Au                 
 -0.936  -0.936  -0.936  -0.936  -0.936  -0.896  -0.896  -0.896
 32 Ag   33 Ag   34 Ag   35 Ag   36 Ag   34 Au   35 Au   36 Au                 
 -0.866  -0.866  -0.866  -0.866  -0.815  -0.815  -0.815  -0.815
 37 Au   38 Au   39 Au   40 Au   37 Ag   38 Ag   39 Ag   40 Ag                 
 -0.815  -0.798  -0.798  -0.798  -0.798  -0.741  -0.741  -0.741
 41 Ag   42 Ag   43 Ag   44 Ag   45 Ag   41 Au   42 Au   43 Au                 
 -0.740  -0.740  -0.729  -0.729  -0.729  -0.690  -0.690  -0.690
 44 Au   45 Au   46 Au   47 Au   48 Au   49 Au   50 Au   51 Au                 
 -0.651  -0.651  -0.651  -0.651  -0.651  -0.644  -0.644  -0.644
 46 Ag   47 Ag   48 Ag   49 Ag   50 Ag   51 Ag   52 Ag   53 Ag                 
 -0.625  -0.581  -0.581  -0.581  -0.581  -0.556  -0.556  -0.556
 54 Ag   55 Ag   56 Ag   57 Ag   58 Ag   52 Au   53 Au   54 Au                 
 -0.556  -0.556  -0.542  -0.542  -0.542  -0.517  -0.517  -0.517
 55 Au   56 Au   57 Au   58 Au   59 Au   60 Au   61 Au   62 Au                 
 -0.498  -0.489  -0.489  -0.489  -0.489  -0.475  -0.475  -0.475
 59 Ag   63 Au   64 Au   65 Au   66 Au   67 Au   68 Au   69 Au                 
 -0.473  -0.473  -0.473  -0.473  -0.473  -0.458  -0.458  -0.458
 60 Ag   61 Ag   62 Ag   63 Ag   64 Ag   65 Ag   66 Ag   67 Ag                 
 -0.458  -0.444  -0.444  -0.444  -0.430  -0.430  -0.430  -0.430
 68 Ag   69 Ag   70 Ag   71 Ag   72 Ag   73 Ag   74 Ag   75 Ag                 
 -0.430  -0.429  -0.429  -0.429  -0.429  -0.383  -0.383  -0.383
 76 Ag   70 Au   71 Au   72 Au   73 Au   77 Ag   78 Ag   79 Ag                 
 -0.383  -0.383  -0.375  -0.375  -0.375  -0.371  -0.371  -0.371
 80 Ag   81 Ag   74 Au   75 Au   76 Au   77 Au   78 Au   79 Au                 
 -0.371  -0.371  -0.357  -0.357  -0.357  -0.357  -0.288  -0.288
 80 Au   81 Au   82 Au   83 Au   84 Au   85 Au   82 Ag   83 Ag                 
 -0.288  -0.288  -0.288  -0.288  -0.288  -0.288  -0.288  -0.239
 84 Ag   85 Ag   86 Ag   87 Ag   88 Ag   89 Ag   90 Ag   86 Au                 
 -0.239  -0.239  -0.239  -0.239
 87 Au   88 Au   89 Au   90 Au                                                 
 -- Virtual --                   
 -0.132  -0.132  -0.132  -0.090  -0.090  -0.090  -0.044  -0.043
 91 Au   92 Au   93 Au   91 Ag   92 Ag   93 Ag   94 Au   95 Au                 
 -0.043  -0.042  -0.042  -0.042  -0.042  -0.042   0.017   0.017
 96 Au   94 Ag   95 Ag   96 Ag   97 Ag   98 Ag   97 Au   98 Au                 
  0.017   0.017   0.017   0.038   0.038   0.038   0.038   0.061
 99 Au  100 Au  101 Au   99 Ag  100 Ag  101 Ag  102 Ag  102 Au                 
  0.061   0.061   0.061   0.081   0.081   0.082   0.116   0.116
103 Au  104 Au  105 Au  103 Ag  104 Ag  105 Ag  106 Au  107 Au                 
  0.116   0.149   0.149   0.149   0.149   0.149   0.169   0.169
108 Au  106 Ag  107 Ag  108 Ag  109 Ag  110 Ag  111 Ag  112 Ag                 
  0.169   0.191   0.191   0.191   0.197   0.197   0.197   0.197
113 Ag  109 Au  110 Au  111 Au  112 Au  113 Au  114 Au  115 Au                 
  0.233   0.233   0.233   0.233   0.233   0.263   0.263   0.263
114 Ag  115 Ag  116 Ag  117 Ag  118 Ag  119 Ag  120 Ag  121 Ag                 
  0.263   0.275   0.275   0.275   0.275   0.275   0.320   0.320
122 Ag  116 Au  117 Au  118 Au  119 Au  120 Au  121 Au  122 Au                 
  0.320   0.343   0.343   0.343   0.350   0.350   0.350   0.372
123 Au  124 Au  125 Au  126 Au  123 Ag  124 Ag  125 Ag  127 Au                 
  0.372   0.372   0.372   0.372   0.432   0.432   0.432   0.461
128 Au  129 Au  130 Au  131 Au  126 Ag  127 Ag  128 Ag  129 Ag                 
  0.461   0.461   0.461   0.461   0.461   0.461   0.461   0.461
130 Ag  131 Ag  132 Ag  133 Ag  134 Ag  135 Ag  136 Ag  137 Ag                 
  0.469   0.469   0.469   0.469   0.494   0.494   0.494   0.535
132 Au  133 Au  134 Au  135 Au  138 Ag  139 Ag  140 Ag  141 Ag                 
  0.535   0.535   0.535   0.535   0.536   0.536   0.536   0.536
142 Ag  143 Ag  144 Ag  136 Au  137 Au  138 Au  139 Au  140 Au                 
  0.559   0.559   0.559   0.559   0.559   0.603   0.631   0.631
141 Au  142 Au  143 Au  144 Au  145 Au  145 Ag  146 Ag  147 Ag                 
  0.631   0.631   0.631   0.631   0.645   0.661   0.661   0.661
148 Ag  146 Au  147 Au  148 Au  149 Ag  149 Au  150 Au  151 Au                 
  0.661   0.664   0.664   0.664   0.664   0.664   0.677   0.677
152 Au  150 Ag  151 Ag  152 Ag  153 Ag  154 Ag  153 Au  154 Au                 
  0.677   0.678   0.678   0.679   0.679   0.686   0.686   0.686
155 Au  156 Au  157 Au  158 Au  159 Au  160 Au  161 Au  162 Au                 
  0.686   0.691   0.691   0.691   0.691   0.701   0.702   0.702
163 Au  155 Ag  156 Ag  157 Ag  158 Ag  159 Ag  160 Ag  161 Ag                 
  0.706   0.706   0.706   0.706   0.706   0.733   0.733   0.733
162 Ag  163 Ag  164 Ag  165 Ag  166 Ag  164 Au  165 Au  166 Au                 
  0.770   0.770   0.770   0.770   0.787   0.787   0.787   0.787
167 Au  168 Au  169 Au  170 Au  167 Ag  168 Ag  169 Ag  170 Ag                 
  0.787   0.795   0.795   0.796   0.796   0.797   0.797   0.797
171 Ag  172 Ag  173 Ag  174 Ag  175 Ag  171 Au  172 Au  173 Au                 
  0.797   0.798   0.798   0.798   0.798   0.801   0.801   0.801
174 Au  175 Au  176 Au  177 Au  178 Au  176 Ag  177 Ag  178 Ag                 
  0.801   0.801   0.819   0.819   0.819   0.820   0.820   0.820
179 Ag  180 Ag  179 Au  180 Au  181 Au  181 Ag  182 Ag  183 Ag                 
  0.824   0.824   0.824   0.825   0.825   0.825   0.825   0.825
184 Ag  185 Ag  186 Ag  182 Au  183 Au  184 Au  185 Au  186 Au                 
  0.831   0.831   0.831   0.831   0.833   0.833   0.833   0.833
187 Ag  188 Ag  189 Ag  190 Ag  187 Au  188 Au  189 Au  190 Au                 
  0.928   0.928   0.928   0.928   0.928   0.934   0.934   0.934
191 Ag  192 Ag  193 Ag  194 Ag  195 Ag  191 Au  192 Au  193 Au                 
  0.947   0.947   0.947   1.008   1.059   1.060   1.060   1.060
194 Au  195 Au  196 Au  196 Ag  197 Au  198 Au  199 Au  200 Au                 
  1.100   1.100   1.100   1.100   1.100   1.102   1.102   1.102
201 Au  202 Au  203 Au  204 Au  205 Au  197 Ag  198 Ag  199 Ag                 
  1.102   1.102   1.121   1.121   1.121   1.121   1.122   1.122
200 Ag  201 Ag  202 Ag  203 Ag  204 Ag  205 Ag  206 Ag  207 Ag                 
  1.122   1.122   1.122   1.180   1.181   1.181   1.184   1.185
208 Ag  209 Ag  210 Ag  206 Au  207 Au  208 Au  211 Ag  212 Ag                 
  1.185   1.200   1.201   1.201   1.205   1.205   1.205   1.213
213 Ag  214 Ag  215 Ag  216 Ag  209 Au  210 Au  211 Au  212 Au                 
  1.213   1.213   1.213   1.213   1.250   1.250   1.250   1.250
213 Au  214 Au  215 Au  216 Au  217 Au  218 Au  219 Au  220 Au                 
  1.250   1.284   1.284   1.284   1.284   1.291   1.291   1.291
221 Au  217 Ag  218 Ag  219 Ag  220 Ag  222 Au  223 Au  224 Au                 
  1.291   1.307   1.307   1.307   1.307   1.307   1.309   1.309
225 Au  221 Ag  222 Ag  223 Ag  224 Ag  225 Ag  226 Au  227 Au                 
  1.309   1.333   1.333   1.333   1.355   1.355   1.355   1.384
228 Au  226 Ag  227 Ag  228 Ag  229 Ag  230 Ag  231 Ag  232 Ag                 
  1.385   1.385   1.385   1.385   1.401   1.401   1.401   1.401
233 Ag  234 Ag  235 Ag  236 Ag  237 Ag  238 Ag  239 Ag  229 Au                 
  1.401   1.401   1.401   1.401   1.401   1.413   1.413   1.413
230 Au  240 Ag  231 Au  232 Au  233 Au  234 Au  235 Au  236 Au                 
  1.413   1.431   1.431   1.431   1.431   1.431   1.484   1.485
237 Au  238 Au  239 Au  240 Au  241 Au  242 Au  243 Au  244 Au                 
  1.485   1.521   1.521   1.521   1.522   1.523   1.523   1.523
245 Au  246 Au  247 Au  248 Au  249 Au  241 Ag  242 Ag  243 Ag                 
  1.530   1.530   1.530   1.659   1.674   1.674   1.675   1.675
244 Ag  245 Ag  246 Ag  250 Au  247 Ag  248 Ag  249 Ag  250 Ag                 
  1.675   1.676   1.677   1.677   1.677   1.907   1.907   1.908
251 Ag  252 Ag  253 Ag  254 Ag  255 Ag  251 Au  252 Au  253 Au                 
  1.908   1.908   1.956   1.956   1.957   1.960   1.960   1.961
254 Au  255 Au  256 Au  257 Au  258 Au  259 Au  260 Au  261 Au                 
  2.169   2.169   2.170   2.170   2.170   2.242   2.243   2.243
256 Ag  257 Ag  258 Ag  259 Ag  260 Ag  261 Ag  262 Ag  263 Ag                 
  2.516   2.516   2.517   2.518   2.560   2.560   2.560   2.560
264 Ag  265 Ag  266 Ag  267 Ag  262 Au  263 Au  264 Au  265 Au                 
  2.560   3.000   3.001   3.002   3.002   3.217   3.218   3.218
266 Au  267 Au  268 Au  269 Au  270 Au  268 Ag  269 Ag  270 Ag                 
 --------------------------------------------------------------

          Ground-State Mulliken Net Atomic Charges

     Atom                 Charge (a.u.)
  ----------------------------------------
      1 C                     0.000673
      2 C                     0.000032
      3 C                     0.000032
      4 C                     0.000673
      5 C                    -0.000507
      6 C                    -0.000021
      7 C                    -0.000021
      8 C                    -0.000507
      9 C                    -0.000068
     10 C                     0.000110
     11 C                     0.000110
     12 C                    -0.000068
     13 C                     0.000018
     14 C                    -0.000297
     15 C                    -0.000182
     16 C                    -0.000391
     17 C                    -0.000391
     18 C                    -0.000182
     19 C                    -0.000297
     20 C                     0.000018
     21 C                    -0.000090
     22 C                     0.000548
     23 C                    -0.000037
     24 C                     0.000525
     25 C                     0.000525
     26 C                    -0.000037
     27 C                     0.000548
     28 C                    -0.000090
     29 C                    -0.000278
     30 C                     0.000363
     31 C                    -0.000082
     32 C                     0.000007
     33 C                     0.000007
     34 C                    -0.000082
     35 C                     0.000363
     36 C                    -0.000278
     37 C                    -0.000165
     38 C                     0.000117
     39 C                     0.000209
     40 C                     0.000357
     41 C                     0.000357
     42 C                     0.000209
     43 C                     0.000117
     44 C                    -0.000165
     45 C                     0.000292
     46 C                    -0.000259
     47 C                    -0.000447
     48 C                    -0.000273
     49 C                    -0.000273
     50 C                    -0.000447
     51 C                    -0.000259
     52 C                     0.000292
     53 C                    -0.000175
     54 C                    -0.000007
     55 C                     0.000285
     56 C                    -0.000257
     57 C                    -0.000257
     58 C                     0.000285
     59 C                    -0.000007
     60 C                    -0.000175
  ----------------------------------------
  Sum of atomic charges =     0.000000

 -----------------------------------------------------------------
                    Cartesian Multipole Moments
 -----------------------------------------------------------------
    Charge (ESU x 10^10)
                -0.0000
    Dipole Moment (Debye)
         X      -0.0000      Y      -0.0000      Z       0.0000
       Tot       0.0000
    Quadrupole Moments (Debye-Ang)
        XX    -339.0969     XY      -0.0044     YY    -339.1041
        XZ      -0.0020     YZ      -0.0094     ZZ    -339.0769
    Octopole Moments (Debye-Ang^2)
       XXX      -0.0000    XXY       0.0000    XYY      -0.0000
       YYY      -0.0000    XXZ       0.0000    XYZ       0.0000
       YYZ       0.0000    XZZ      -0.0000    YZZ      -0.0000
       ZZZ       0.0000
    Hexadecapole Moments (Debye-Ang^3)
      XXXX   -8918.4398   XXXY       0.9587   XXYY   -2971.8978
      XYYY       0.9873   YYYY   -8912.7209   XXXZ       0.6649
      XXYZ       0.3659   XYYZ       0.2127   YYYZ       1.0153
      XXZZ   -2972.7019   XYZZ       0.3579   YYZZ   -2971.7965
      XZZZ       0.7403   YZZZ       1.0133   ZZZZ   -8917.9931
 -----------------------------------------------------------------
 Calculating analytic gradient of the SCF energy
 Gradient of SCF Energy
            1           2           3           4           5           6
    1  -0.0021300   0.0010928  -0.0010928   0.0021300   0.0015583  -0.0016430
    2   0.0004094  -0.0010879   0.0010879  -0.0004094   0.0017481  -0.0002278
    3   0.0010674  -0.0018017   0.0018017  -0.0010674   0.0005410  -0.0015270
            7           8           9          10          11          12
    1   0.0016430  -0.0015583   0.0007419   0.0003228  -0.0003228  -0.0007419
    2   0.0002278  -0.0017481  -0.0019698   0.0014209  -0.0014209   0.0019698
    3   0.0015270  -0.0005410   0.0005381  -0.0015883   0.0015883  -0.0005381
           13          14          15          16          17          18
    1  -0.0005955  -0.0003465   0.0003749   0.0005330  -0.0005330  -0.0003749
    2   0.0019595  -0.0015035   0.0012409  -0.0022271   0.0022271  -0.0012409
[...]
 Red. Mass:      12.0000                12.0000                12.0000
 IR Active:          YES                    YES                    YES
 IR Intens:        0.000                  0.000                  0.001
 Raman Active:       NO                     NO                     NO 
               X      Y      Z        X      Y      Z        X      Y      Z
 C          0.001 -0.059 -0.038    0.046 -0.072 -0.039   -0.139  0.088  0.037
 C          0.001  0.051  0.043   -0.044  0.062  0.058    0.142 -0.065 -0.071
 C          0.001  0.051  0.043   -0.044  0.062  0.058    0.142 -0.065 -0.071
 C          0.001 -0.059 -0.038    0.046 -0.072 -0.039   -0.139  0.088  0.037
 C          0.002 -0.033  0.057    0.028  0.082 -0.189    0.036 -0.009 -0.031
 C          0.005  0.044 -0.048   -0.054 -0.116  0.164   -0.040  0.009  0.026
 C          0.005  0.044 -0.048   -0.054 -0.116  0.164   -0.040  0.009  0.026
 C          0.002 -0.033  0.057    0.028  0.082 -0.189    0.036 -0.009 -0.031
 C         -0.077 -0.093 -0.142    0.007  0.013  0.011   -0.067 -0.135 -0.041
 C          0.114  0.075  0.130   -0.013 -0.012 -0.012    0.098  0.118  0.033
 C          0.114  0.075  0.130   -0.013 -0.012 -0.012    0.098  0.118  0.033
 C         -0.077 -0.093 -0.142    0.007  0.013  0.011   -0.067 -0.135 -0.041
 C          0.046  0.132  0.178    0.007  0.081  0.090    0.027 -0.032 -0.009
 C          0.021  0.017  0.004    0.037  0.071  0.009    0.046 -0.064  0.000
 C         -0.130 -0.065 -0.138   -0.034 -0.007 -0.009   -0.141 -0.022 -0.025
 C         -0.009 -0.057 -0.023    0.023 -0.124 -0.082    0.020  0.148  0.062
 C         -0.009 -0.057 -0.023    0.023 -0.124 -0.082    0.020  0.148  0.062
 C         -0.130 -0.065 -0.138   -0.034 -0.007 -0.009   -0.141 -0.022 -0.025
 C          0.021  0.017  0.004    0.037  0.071  0.009    0.046 -0.064  0.000
 C          0.046  0.132  0.178    0.007  0.081  0.090    0.027 -0.032 -0.009
 C         -0.029  0.040  0.037   -0.024  0.030  0.077   -0.001  0.001 -0.004
 C          0.003  0.018 -0.069   -0.112 -0.016  0.117   -0.167  0.003  0.074
 C         -0.009 -0.025  0.019    0.155 -0.051 -0.191    0.017  0.037 -0.033
 C          0.019 -0.022  0.011   -0.006  0.065 -0.039    0.144 -0.082  0.030
 C          0.019 -0.022  0.011   -0.006  0.065 -0.039    0.144 -0.082  0.030
 C         -0.009 -0.025  0.019    0.155 -0.051 -0.191    0.017  0.037 -0.033
 C          0.003  0.018 -0.069   -0.112 -0.016  0.117   -0.167  0.003  0.074
 C         -0.029  0.040  0.037   -0.024  0.030  0.077   -0.001  0.001 -0.004
 C          0.073 -0.000  0.167    0.034 -0.026  0.071   -0.006  0.035 -0.005
 C         -0.029 -0.027  0.071    0.046  0.038 -0.108    0.087  0.157 -0.080
 C         -0.028 -0.010 -0.016    0.004  0.097 -0.047   -0.013 -0.149  0.065
 C         -0.042  0.012 -0.236   -0.023 -0.032  0.121   -0.062 -0.043  0.043
 C         -0.042  0.012 -0.236   -0.023 -0.032  0.121   -0.062 -0.043  0.043
 C         -0.028 -0.010 -0.016    0.004  0.097 -0.047   -0.013 -0.149  0.065
 C         -0.029 -0.027  0.071    0.046  0.038 -0.108    0.087  0.157 -0.080
 C          0.073 -0.000  0.167    0.034 -0.026  0.071   -0.006  0.035 -0.005
 C         -0.018 -0.096 -0.206    0.010 -0.061 -0.103   -0.029  0.025  0.010
 C         -0.020 -0.020  0.003   -0.039 -0.070  0.008   -0.047  0.064  0.002
 C          0.128  0.021  0.153    0.037 -0.000  0.015    0.142 -0.011  0.034
 C          0.003  0.061  0.010   -0.040  0.138  0.052   -0.001 -0.156 -0.030
 C          0.003  0.061  0.010   -0.040  0.138  0.052   -0.001 -0.156 -0.030
 C          0.128  0.021  0.153    0.037 -0.000  0.015    0.142 -0.011  0.034
 C         -0.020 -0.020  0.003   -0.039 -0.070  0.008   -0.047  0.064  0.002
 C         -0.018 -0.096 -0.206    0.010 -0.061 -0.103   -0.029  0.025  0.010
 C          0.017 -0.041 -0.037    0.016 -0.037 -0.077    0.001 -0.002  0.005
 C         -0.005 -0.027  0.068    0.112  0.052 -0.102    0.167  0.040 -0.061
 C          0.006  0.028 -0.021   -0.102  0.059  0.220   -0.013 -0.033  0.038
 C         -0.021  0.014 -0.014    0.004 -0.058  0.048   -0.147  0.060 -0.065
 C         -0.021  0.014 -0.014    0.004 -0.058  0.048   -0.147  0.060 -0.065
 C          0.006  0.028 -0.021   -0.102  0.059  0.220   -0.013 -0.033  0.038
 C         -0.005 -0.027  0.068    0.112  0.052 -0.102    0.167  0.040 -0.061
 C          0.017 -0.041 -0.037    0.016 -0.037 -0.077    0.001 -0.002  0.005
 C         -0.110 -0.004 -0.147   -0.052  0.020 -0.064    0.011 -0.040  0.004
 C          0.046  0.021 -0.068   -0.066 -0.027  0.099   -0.127 -0.136  0.069
 C          0.027  0.006  0.016    0.006 -0.106  0.023   -0.008  0.157 -0.033
 C          0.013  0.039  0.237    0.039  0.006 -0.120    0.068  0.034 -0.043
 C          0.013  0.039  0.237    0.039  0.006 -0.120    0.068  0.034 -0.043
 C          0.027  0.006  0.016    0.006 -0.106  0.023   -0.008  0.157 -0.033
 C          0.046  0.021 -0.068   -0.066 -0.027  0.099   -0.127 -0.136  0.069
 C         -0.110 -0.004 -0.147   -0.052  0.020 -0.064    0.011 -0.040  0.004
 TransDip   0.000 -0.000 -0.000    0.000 -0.000  0.000   -0.000  0.000 -0.001

 Mode:               169                    170                    171
 Frequency:      1598.07                1607.20                1608.11
 Force Cnst:     18.0561                18.2629                18.2836
 Red. Mass:      12.0000                12.0000                12.0000
 IR Active:          YES                    NO                     NO 
 IR Intens:        0.001                  0.000                  0.000
 Raman Active:       NO                     YES                    YES
               X      Y      Z        X      Y      Z        X      Y      Z
 C         -0.165  0.049  0.010   -0.011 -0.001 -0.005    0.070 -0.004  0.012
 C          0.163 -0.026 -0.042    0.010  0.002  0.003   -0.070 -0.004 -0.001
 C          0.163 -0.026 -0.042   -0.010 -0.002 -0.003    0.070  0.004  0.001
 C         -0.165  0.049  0.010    0.011  0.001  0.005   -0.070  0.004 -0.012
 C          0.020 -0.033  0.034    0.026 -0.083  0.106   -0.039 -0.025  0.095
 C         -0.011  0.042 -0.032   -0.007  0.106 -0.090    0.052  0.040 -0.083
 C         -0.011  0.042 -0.032    0.007 -0.106  0.090   -0.052 -0.040  0.083
 C          0.020 -0.033  0.034   -0.026  0.083 -0.106    0.039  0.025 -0.095
 C          0.064  0.120  0.055    0.063  0.074  0.122    0.018  0.014  0.033
 C         -0.093 -0.106 -0.043   -0.094 -0.058 -0.111   -0.026 -0.010 -0.029
 C         -0.093 -0.106 -0.043    0.094  0.058  0.111    0.026  0.010  0.029
 C          0.064  0.120  0.055   -0.063 -0.074 -0.122   -0.018 -0.014 -0.033
 C          0.015 -0.045 -0.033   -0.022  0.074  0.048   -0.055 -0.105 -0.154
 C          0.246  0.133  0.034   -0.059 -0.041 -0.010    0.003 -0.014  0.003
 C         -0.107 -0.015 -0.015   -0.048 -0.033 -0.078    0.214  0.065  0.109
 C         -0.075 -0.106 -0.006   -0.010  0.013  0.016    0.017 -0.062 -0.046
 C         -0.075 -0.106 -0.006    0.010 -0.013 -0.016   -0.017  0.062  0.046
 C         -0.107 -0.015 -0.015    0.048  0.033  0.078   -0.214 -0.065 -0.109
 C          0.246  0.133  0.034    0.059  0.041  0.010   -0.003  0.014 -0.003
 C          0.015 -0.045 -0.033    0.022 -0.074 -0.048    0.055  0.105  0.154
 C          0.005 -0.006 -0.023   -0.158  0.205 -0.010    0.021 -0.028 -0.059
 C         -0.101  0.009  0.020    0.099  0.016 -0.117    0.197 -0.003 -0.086
 C         -0.030 -0.016  0.044    0.071 -0.063 -0.070   -0.064  0.019  0.081
 C          0.158 -0.044  0.007   -0.012 -0.012  0.014   -0.097  0.045 -0.010
 C          0.158 -0.044  0.007    0.012  0.012 -0.014    0.097 -0.045  0.010
 C         -0.030 -0.016  0.044   -0.071  0.063  0.070    0.064 -0.019 -0.081
 C         -0.101  0.009  0.020   -0.099 -0.016  0.117   -0.197  0.003  0.086
 C          0.005 -0.006 -0.023    0.158 -0.205  0.010   -0.021  0.028  0.059
 C         -0.015 -0.022 -0.041   -0.069  0.070 -0.132   -0.055  0.031 -0.125
 C         -0.067 -0.123  0.061    0.035  0.032 -0.090   -0.039 -0.052  0.063
 C          0.072  0.114 -0.009    0.019 -0.016  0.025    0.012 -0.129  0.075
 C          0.010  0.007 -0.003    0.012 -0.022  0.198   -0.038 -0.010 -0.041
 C          0.010  0.007 -0.003   -0.012  0.022 -0.198    0.038  0.010  0.041
 C          0.072  0.114 -0.009   -0.019  0.016 -0.025   -0.012  0.129 -0.075
 C         -0.067 -0.123  0.061   -0.035 -0.032  0.090    0.039  0.052 -0.063
 C         -0.015 -0.022 -0.041    0.069 -0.070  0.132    0.055 -0.031  0.125
 C         -0.025  0.037  0.036    0.033 -0.060 -0.057    0.030  0.073  0.177
 C         -0.245 -0.133  0.033    0.059  0.041 -0.010   -0.003  0.015 -0.004
 C          0.105 -0.009  0.024    0.048  0.012  0.085   -0.212 -0.005 -0.128
 C          0.060  0.115 -0.013    0.012 -0.013 -0.013   -0.027  0.067  0.030
 C          0.060  0.115 -0.013   -0.012  0.013  0.013    0.027 -0.067 -0.030
 C          0.105 -0.009  0.024   -0.048 -0.012 -0.085    0.212  0.005  0.128
 C         -0.245 -0.133  0.033   -0.059 -0.041  0.010    0.003 -0.015  0.004
 C         -0.025  0.037  0.036   -0.033  0.060  0.057   -0.030 -0.073 -0.177
 C         -0.003  0.008  0.019    0.100 -0.236  0.010   -0.013  0.033  0.059
 C          0.102  0.013 -0.012   -0.099 -0.051  0.105   -0.199 -0.049  0.068
 C          0.021  0.016 -0.053   -0.047  0.065  0.084    0.043 -0.023 -0.093
 C         -0.156  0.023 -0.037    0.011  0.013 -0.012    0.097 -0.030  0.030
 C         -0.156  0.023 -0.037   -0.011 -0.013  0.012   -0.097  0.030 -0.030
 C          0.021  0.016 -0.053    0.047 -0.065 -0.084   -0.043  0.023  0.093
 C          0.102  0.013 -0.012    0.099  0.051 -0.105    0.199  0.049 -0.068
 C         -0.003  0.008  0.019   -0.100  0.236 -0.010    0.013 -0.033 -0.059
 C          0.021  0.022  0.034    0.104 -0.066  0.111    0.083 -0.025  0.107
 C          0.098  0.108 -0.048   -0.053 -0.022  0.083    0.059  0.042 -0.056
 C         -0.056 -0.123 -0.012   -0.022  0.016 -0.021   -0.032  0.140 -0.044
 C         -0.011 -0.006  0.009    0.013 -0.020 -0.199    0.033  0.019  0.040
 C         -0.011 -0.006  0.009   -0.013  0.020  0.199   -0.033 -0.019 -0.040
 C         -0.056 -0.123 -0.012    0.022 -0.016  0.021    0.032 -0.140  0.044
 C          0.098  0.108 -0.048    0.053  0.022 -0.083   -0.059 -0.042  0.056
 C          0.021  0.022  0.034   -0.104  0.066 -0.111   -0.083  0.025 -0.107
 TransDip  -0.000 -0.000  0.001   -0.000 -0.000  0.000   -0.000  0.000  0.000

 Mode:               172                    173                    174
 Frequency:      1608.81                1609.96                1610.91
 Force Cnst:     18.2995                18.3258                18.3474
 Red. Mass:      12.0000                12.0000                12.0000
 IR Active:          NO                     NO                     NO 
 IR Intens:        0.000                  0.000                  0.000
 Raman Active:       YES                    YES                    YES
               X      Y      Z        X      Y      Z        X      Y      Z
 C          0.110 -0.110 -0.053   -0.112  0.088  0.039    0.165 -0.060 -0.020
 C         -0.110  0.087  0.085    0.112 -0.066 -0.069   -0.166  0.036  0.055
 C          0.110 -0.087 -0.085   -0.112  0.066  0.069    0.166 -0.036 -0.055
 C         -0.110  0.110  0.053    0.112 -0.088 -0.039   -0.165  0.060  0.020
 C         -0.004 -0.085  0.168    0.012 -0.040  0.065    0.038 -0.064  0.070
 C          0.029  0.116 -0.143   -0.002  0.052 -0.055   -0.024  0.080 -0.058
 C         -0.029 -0.116  0.143    0.002 -0.052  0.055    0.024 -0.080  0.058
 C          0.004  0.085 -0.168   -0.012  0.040 -0.065   -0.038  0.064 -0.070
 C          0.012  0.041  0.001    0.099  0.180  0.089   -0.030 -0.046 -0.050
 C         -0.020 -0.036  0.002   -0.146 -0.157 -0.073    0.044  0.038  0.046
 C          0.020  0.036 -0.002    0.146  0.157  0.073   -0.044 -0.038 -0.046
 C         -0.012 -0.041 -0.001   -0.099 -0.180 -0.089    0.030  0.046  0.050
 C          0.006  0.093  0.105    0.007 -0.047 -0.046   -0.023  0.083  0.065
 C          0.010  0.087  0.008    0.001  0.008 -0.004   -0.244 -0.126 -0.034
 C          0.063 -0.001 -0.015   -0.037  0.004  0.014    0.062  0.013  0.032
 C          0.004 -0.190 -0.103    0.031  0.116  0.034    0.058  0.099  0.017
 C         -0.004  0.190  0.103   -0.031 -0.116 -0.034   -0.058 -0.099 -0.017
 C         -0.063  0.001  0.015    0.037 -0.004 -0.014   -0.062 -0.013 -0.032
 C         -0.010 -0.087 -0.008   -0.001 -0.008  0.004    0.244  0.126  0.034
 C         -0.006 -0.093 -0.105   -0.007  0.047  0.046    0.023 -0.083 -0.065
 C          0.006  0.002 -0.009    0.014 -0.017 -0.039   -0.043  0.059  0.002
 C          0.029  0.013 -0.054   -0.055  0.009  0.003   -0.065  0.002  0.041
 C         -0.117  0.059  0.144   -0.084 -0.011  0.109    0.018 -0.042 -0.011
 C          0.055 -0.084  0.045    0.134 -0.106  0.044    0.162 -0.057  0.017
 C         -0.055  0.084 -0.045   -0.134  0.106 -0.044   -0.162  0.057 -0.017
 C          0.117 -0.059 -0.144    0.084  0.011 -0.109   -0.018  0.042  0.011
 C         -0.029 -0.013  0.054    0.055 -0.009 -0.003    0.065 -0.002 -0.041
 C         -0.006 -0.002  0.009   -0.014  0.017  0.039    0.043 -0.059 -0.002
 C          0.062 -0.053  0.138   -0.034 -0.026 -0.080   -0.008  0.044 -0.007
 C          0.017  0.058  0.004   -0.108 -0.186  0.109   -0.025 -0.040  0.045
 C         -0.003  0.130 -0.068    0.025  0.142 -0.049   -0.059 -0.102  0.016
 C         -0.009 -0.012  0.048    0.050  0.035 -0.018   -0.013  0.021 -0.178
 C          0.009  0.012 -0.048   -0.050 -0.035  0.018    0.013 -0.021  0.178
 C          0.003 -0.130  0.068   -0.025 -0.142  0.049    0.059  0.102 -0.016
 C         -0.017 -0.058 -0.004    0.108  0.186 -0.109    0.025  0.040 -0.045
 C         -0.062  0.053 -0.138    0.034  0.026  0.080    0.008 -0.044  0.007
 C          0.013 -0.069 -0.123   -0.015  0.037  0.054    0.038 -0.066 -0.078
 C         -0.010 -0.087  0.005   -0.001 -0.008  0.006    0.244  0.126 -0.033
 C         -0.063  0.014  0.011    0.037 -0.009 -0.012   -0.062  0.003 -0.037
 C         -0.031  0.205  0.060   -0.014 -0.125 -0.011   -0.044 -0.106  0.003
 C          0.031 -0.205 -0.060    0.014  0.125  0.011    0.044  0.106 -0.003
 C          0.063 -0.014 -0.011   -0.037  0.009  0.012    0.062 -0.003  0.037
 C          0.010  0.087 -0.005    0.001  0.008 -0.006   -0.244 -0.126  0.033
 C         -0.013  0.069  0.123    0.015 -0.037 -0.054   -0.038  0.066  0.078
 C         -0.005 -0.003  0.009   -0.009  0.020  0.038    0.028 -0.067 -0.002
 C         -0.030 -0.025  0.050    0.055  0.002  0.001    0.065  0.015 -0.035
 C          0.076 -0.065 -0.169    0.056  0.007 -0.126   -0.011  0.044  0.015
 C         -0.055  0.071 -0.064   -0.134  0.080 -0.080   -0.163  0.034 -0.051
 C          0.055 -0.071  0.064    0.134 -0.080  0.080    0.163 -0.034  0.051
 C         -0.076  0.065  0.169   -0.056 -0.007  0.126    0.011 -0.044 -0.015
 C          0.030  0.025 -0.050   -0.055 -0.002 -0.001   -0.065 -0.015  0.035
 C          0.005  0.003 -0.009    0.009 -0.020 -0.038   -0.028  0.067  0.002
 C         -0.097  0.047 -0.117    0.051  0.029  0.071    0.013 -0.042  0.004
 C         -0.028 -0.051 -0.007    0.159  0.161 -0.092    0.038  0.033 -0.041
 C          0.020 -0.140  0.039   -0.005 -0.153  0.020    0.045  0.109  0.005
 C          0.014  0.001 -0.048   -0.052 -0.031  0.018   -0.012  0.019  0.178
 C         -0.014 -0.001  0.048    0.052  0.031 -0.018    0.012 -0.019 -0.178
 C         -0.020  0.140 -0.039    0.005  0.153 -0.020   -0.045 -0.109 -0.005
 C          0.028  0.051  0.007   -0.159 -0.161  0.092   -0.038 -0.033  0.041
 C          0.097 -0.047  0.117   -0.051 -0.029 -0.071   -0.013  0.042 -0.004
 TransDip   0.000  0.000  0.000   -0.000  0.000  0.000    0.000  0.000  0.000

 STANDARD THERMODYNAMIC QUANTITIES AT   298.15 K  AND     1.00 ATM

   This Molecule has  0 Imaginary Frequencies
   Zero point vibrational energy:      231.209 kcal/mol

   Atom    1 Element C  Has Mass   12.00000
   Atom    2 Element C  Has Mass   12.00000
   Atom    3 Element C  Has Mass   12.00000
   Atom    4 Element C  Has Mass   12.00000
   Atom    5 Element C  Has Mass   12.00000
   Atom    6 Element C  Has Mass   12.00000
   Atom    7 Element C  Has Mass   12.00000
   Atom    8 Element C  Has Mass   12.00000
   Atom    9 Element C  Has Mass   12.00000
   Atom   10 Element C  Has Mass   12.00000
   Atom   11 Element C  Has Mass   12.00000
   Atom   12 Element C  Has Mass   12.00000
   Atom   13 Element C  Has Mass   12.00000
   Atom   14 Element C  Has Mass   12.00000
   Atom   15 Element C  Has Mass   12.00000
   Atom   16 Element C  Has Mass   12.00000
   Atom   17 Element C  Has Mass   12.00000
   Atom   18 Element C  Has Mass   12.00000
   Atom   19 Element C  Has Mass   12.00000
   Atom   20 Element C  Has Mass   12.00000
   Atom   21 Element C  Has Mass   12.00000
   Atom   22 Element C  Has Mass   12.00000
   Atom   23 Element C  Has Mass   12.00000
   Atom   24 Element C  Has Mass   12.00000
   Atom   25 Element C  Has Mass   12.00000
   Atom   26 Element C  Has Mass   12.00000
   Atom   27 Element C  Has Mass   12.00000
   Atom   28 Element C  Has Mass   12.00000
   Atom   29 Element C  Has Mass   12.00000
   Atom   30 Element C  Has Mass   12.00000
   Atom   31 Element C  Has Mass   12.00000
   Atom   32 Element C  Has Mass   12.00000
   Atom   33 Element C  Has Mass   12.00000
   Atom   34 Element C  Has Mass   12.00000
   Atom   35 Element C  Has Mass   12.00000
   Atom   36 Element C  Has Mass   12.00000
   Atom   37 Element C  Has Mass   12.00000
   Atom   38 Element C  Has Mass   12.00000
   Atom   39 Element C  Has Mass   12.00000
   Atom   40 Element C  Has Mass   12.00000
   Atom   41 Element C  Has Mass   12.00000
   Atom   42 Element C  Has Mass   12.00000
   Atom   43 Element C  Has Mass   12.00000
   Atom   44 Element C  Has Mass   12.00000
   Atom   45 Element C  Has Mass   12.00000
   Atom   46 Element C  Has Mass   12.00000
   Atom   47 Element C  Has Mass   12.00000
   Atom   48 Element C  Has Mass   12.00000
   Atom   49 Element C  Has Mass   12.00000
   Atom   50 Element C  Has Mass   12.00000
   Atom   51 Element C  Has Mass   12.00000
   Atom   52 Element C  Has Mass   12.00000
   Atom   53 Element C  Has Mass   12.00000
   Atom   54 Element C  Has Mass   12.00000
   Atom   55 Element C  Has Mass   12.00000
   Atom   56 Element C  Has Mass   12.00000
   Atom   57 Element C  Has Mass   12.00000
   Atom   58 Element C  Has Mass   12.00000
   Atom   59 Element C  Has Mass   12.00000
   Atom   60 Element C  Has Mass   12.00000
   Molecular Mass:   720.000000 amu
   Principal axes and moments of inertia in amu*Bohr^2:
                             1           2           3
    Eigenvalues --    21658.92436 21660.09677 21668.65899
          X               1.00000    -0.00000     0.00000
          Y               0.00000     1.00000     0.00000
          Z               0.00000    -0.00000     1.00000
   Rotational Symmetry Number is   2
   The Molecule is an Asymmetric Top
   Translational Enthalpy:        0.889 kcal/mol
   Rotational Enthalpy:           0.889 kcal/mol
   Vibrational Enthalpy:        242.803 kcal/mol
   gas constant (RT):             0.592 kcal/mol
   Translational Entropy:        45.602  cal/mol.K
   Rotational Entropy:           36.184  cal/mol.K
   Vibrational Entropy:          54.707  cal/mol.K

   Total Enthalpy:              245.173 kcal/mol
   Total Entropy:               136.493  cal/mol.K
 Total job time:  5028.96s(wall), 34520.77s(cpu) 
 Fri Dec  2 14:36:34 2022

        *************************************************************
        *                                                           *
        *  Thank you very much for using Q-Chem.  Have a nice day.  *
        *                                                           *
        *************************************************************


