                  Welcome to Q-Chem
     A Quantum Leap Into The Future Of Chemistry


 Q-Chem 6.0 (devel), Q-Chem, Inc., Pleasanton, CA (2022)

 E. Epifanovsky,  A. T. B. Gilbert,  Xintian Feng,  Joonho Lee,  Yuezhi Mao,  
 N. Mardirossian,  P. Pokhilko,  A. White,  M. Wormit,  M. P. Coons,  
 A. L. Dempwolff,  Zhengting Gan,  D. Hait,  P. R. Horn,  L. D. Jacobson,  
 I. Kaliman,  J. Kussmann,  A. W. Lange,  Ka Un Lao,  D. S. Levine,  Jie Liu,  
 S. C. McKenzie,  A. F. Morrison,  K. Nanda,  F. Plasser,  D. R. Rehn,  
 M. L. Vidal,  Zhi-Qiang You,  Ying Zhu,  B. Alam,  B. Albrecht,  
 A. Aldossary,  E. Alguire,  J. H. Andersen,  V. Athavale,  D. Barton,  
 K. Begam,  A. Behn,  N. Bellonzi,  Y. A. Bernard,  E. J. Berquist,  
 H. Burton,  A. Carreras,  K. Carter-Fenk,  Romit Chakraborty,  
 Chandrima Chakravarty,  Junhan Chen,  A. D. Chien,  K. D. Closser,  
 V. Cofer-Shabica,  L. Cunha,  S. Dasgupta,  Jia Deng,  M. de Wergifosse,  
 M. Diedenhofen,  Hainam Do,  S. Ehlert,  Po-Tung Fang,  S. Fatehi,  
 Qingguo Feng,  T. Friedhoff,  B. Ganoe,  J. Gayvert,  Qinghui Ge,  
 G. Gidofalvi,  M. Goldey,  J. Gomes,  C. Gonzalez-Espinoza,  S. Gulania,  
 A. Gunina,  J. A. Gyamfi,  M. W. D. Hanson-Heine,  P. H. P. Harbach,  
 A. W. Hauser,  M. F. Herbst,  M. Hernandez Vera,  M. Hodecker,  
 Z. C. Holden,  S. Houck,  Xunkun Huang,  Kerwin Hui,  B. C. Huynh,  
 K. Ikeda,  M. Ivanov,  Hyunjun Ji,  Zuxin Jin,  Hanjie Jiang,  B. Kaduk,  
 S. Kaehler,  R. Kang,  K. Khistyaev,  Jaehoon Kim,  Yongbin Kim,  
 P. Klunzinger,  Z. Koczor-Benda,  Joong Hoon Koh,  D. Kosenkov,  
 Saikiran Kotaru,  L. Koulias,  T. Kowalczyk,  C. M. Krauter,  K. Kue,  
 A. Kunitsa,  T. Kus,  A. Landau,  K. V. Lawler,  D. Lefrancois,  S. Lehtola,  
 Rain Li,  Shaozhi Li,  Yi-Pei Li,  Jiashu Liang,  M. Liebenthal,  
 Hung-Hsuan Lin,  You-Sheng Lin,  Fenglai Liu,  Kuan-Yu Liu,  
 M. Loipersberger,  A. Luenser,  C. Malbon,  A. Manjanath,  P. Manohar,  
 E. Mansoor,  S. F. Manzer,  Shan-Ping Mao,  A. V. Marenich,  T. Markovich,  
 S. Mason,  F. Matz,  S. A. Maurer,  P. F. McLaughlin,  M. F. S. J. Menger,  
 J.-M. Mewes,  S. A. Mewes,  P. Morgante,  Mohammad Mostafanejad,  
 J. W. Mullinax,  K. J. Oosterbaan,  G. Paran,  V. Parravicini,  
 Alexander C. Paul,  Suranjan K. Paul,  F. Pavosevic,  Zheng Pei,  S. Prager,  
 E. I. Proynov,  E. Ramos,  B. Rana,  A. E. Rask,  A. Rettig,  R. M. Richard,  
 F. Rob,  E. Rossomme,  T. Scheele,  M. Scheurer,  M. Schneider,  
 P. E. Schneider,  N. Sergueev,  S. M. Sharada,  Hengyuan Shen,  
 W. Skomorowski,  D. W. Small,  C. J. Stein,  Yingli Su,  Yu-Chuan Su,  
 E. J. Sundstrom,  Zhen Tao,  J. Thirman,  Hung-Yi Tsai,  T. Tsuchimochi,  
 N. M. Tubman,  C. Utku,  S. P. Veccham,  O. Vydrov,  J. Wenzel,  
 Jonathan Wong,  J. Witte,  A. Yamada,  Chou-Hsun Yang,  Kun Yao,  
 S. Yeganeh,  S. R. Yost,  A. Zech,  F. Zeller,  Igor Ying Zhang,  
 Xing Zhang,  Yu Zhang,  D. Zuev,  A. Aspuru-Guzik,  A. T. Bell,  
 N. A. Besley,  K. B. Bravaya,  B. R. Brooks,  D. Casanova,  Jeng-Da Chai,  
 Hsing-Ta Chen,  S. Coriani,  C. J. Cramer,  A. E. DePrince, III,  
 R. A. DiStasio Jr.,  A. Dreuw,  B. D. Dunietz,  T. R. Furlani,  
 W. A. Goddard III,  S. Grimme,  S. Hammes-Schiffer,  T. Head-Gordon,  
 W. J. Hehre,  Chao-Ping Hsu,  T.-C. Jagau,  Yousung Jung,  A. Klamt,  
 Jing Kong,  D. S. Lambrecht,  Xiangyuan Li,  WanZhen Liang,  N. J. Mayhall,  
 C. W. McCurdy,  J. B. Neaton,  T. Neudecker,  C. Ochsenfeld,  
 J. A. Parkhill,  R. Peverati,  V. A. Rassolov,  Haisheng Ren,  Yihan Shao,  
 L. V. Slipchenko,  R. P. Steele,  J. E. Subotnik,  A. J. W. Thom,  
 A. Tkatchenko,  D. G. Truhlar,  T. Van Voorhis,  Fan Wang,  
 T. A. Wesolowski,  K. B. Whaley,  H. L. Woodcock III,  P. M. Zimmerman,  
 S. Faraji,  P. M. W. Gill,  M. Head-Gordon,  J. M. Herbert,  A. I. Krylov

 Contributors to earlier versions of Q-Chem not listed above: 
 R. D. Adamson,  B. Austin,  R. Baer,  J. Baker,  G. J. O. Beran,  
 K. Brandhorst,  S. T. Brown,  E. F. C. Byrd,  Arup K. Chakraborty,  
 G. K. L. Chan,  Chun-Min Chang,  Yunqing Chen,  C.-L. Cheng,  
 Siu Hung Chien,  D. M. Chipman,  D. L. Crittenden,  H. Dachsel,  
 R. J. Doerksen,  A. D. Dutoi,  R. G. Edgar,  J. Fosso-Tande,  
 L. Fusti-Molnar,  D. Ghosh,  A. Ghysels,  A. Golubeva-Zadorozhnaya,  
 J. Gonthier,  M. S. Gordon,  S. R. Gwaltney,  G. Hawkins,  J. E. Herr,  
 A. Heyden,  S. Hirata,  E. G. Hohenstein,  G. Kedziora,  F. J. Keil,  
 C. Kelley,  Jihan Kim,  R. A. King,  R. Z. Khaliullin,  P. P. Korambath,  
 W. Kurlancheek,  A. Laurent,  A. M. Lee,  M. S. Lee,  S. V. Levchenko,  
 Ching Yeh Lin,  D. Liotard,  E. Livshits,  R. C. Lochan,  I. Lotan,  
 L. A. Martinez-Martinez,  P. E. Maslen,  N. Nair,  D. P. O'Neill,  
 D. Neuhauser,  E. Neuscamman,  C. M. Oana,  R. Olivares-Amaya,  R. Olson,  
 T. M. Perrine,  B. Peters,  P. A. Pieniazek,  A. Prociuk,  Y. M. Rhee,  
 J. Ritchie,  M. A. Rohrdanz,  E. Rosta,  N. J. Russ,  H. F. Schaefer III,  
 M. W. Schmidt,  N. E. Schultz,  S. Sharma,  N. Shenvi,  C. D. Sherrill,  
 A. C. Simmonett,  A. Sodt,  T. Stein,  D. Stuck,  K. S. Thanthiriwatte,  
 V. Vanovschi,  L. Vogt,  Tao Wang,  A. Warshel,  M. A. Watson,  
 C. F. Williams,  Q. Wu,  X. Xu,  Jun Yang,  W. Zhang,  Yan Zhao

   Please cite Q-Chem as follows:
  "Software for the frontiers of quantum chemistry:
   An overview of developments in the Q-Chem 5 package"
   J. Chem. Phys. 155, 084801 (2021)
   https://doi.org/10.1063/5.0055522 (open access)

 Q-Chem 6.0.1 for Intel X86 EM64T Linux

 Parts of Q-Chem use Armadillo 9.900.5 (Nocturnal Misbehaviour).
 http://arma.sourceforge.net/

 Q-Chem begins on Sat Dec 17 00:14:21 2022  

 Host: node8.as.kent.edu
0

     Scratch files written to /home/eholder/active_projects/fe@c60/c60/reproduce-attempt/srsh/opt//
 Processing $rem in /data/dunietz/eholder/qchem/config/preferences:
 Processing $rem in /home/eholder/.qchemrc:
 Symmetry turned off for PCM/SM12/SMD calculation

 Checking the input file for inconsistencies... 	...done.

--------------------------------------------------------------
User input:
--------------------------------------------------------------
$molecule
read opt.txt
$end

$XC_FUNCTIONAL
X HF 0.2
X wPBE 0.8
C PBE  1.0
$end


$rem
jobtype               freq
exchange              general
correlation           none
basis                 6-31G
omega                 235
lrc_dft               true
SCF_FINAL_PRINT       1
iqmol_fchk            true
solvent_method        pcm
mem_static            8000
mem_total             80000
$end

$pcm
theory                pcm
method                swig
solver                inversion
HeavyPoints           194
HPoints               194
radii                 bondi
vdwscale              1.2
$end

$solvent
Dielectric            4.0
$end
--------------------------------------------------------------
 ----------------------------------------------------------------
             Standard Nuclear Orientation (Angstroms)
    I     Atom           X                Y                Z
 ----------------------------------------------------------------
    1      C       3.4825411842     0.6980950573    -0.0000000094
    2      C       3.4825411861    -0.6980950595     0.0000000029
    3      C      -3.4825411865     0.6980950586    -0.0000000062
    4      C      -3.4825411862    -0.6980950571     0.0000000060
    5      C       0.6980951431    -0.0000000050     3.4825414227
    6      C      -0.6980951336    -0.0000000027     3.4825414270
    7      C       0.6980951357     0.0000000000    -3.4825414275
    8      C      -0.6980951439     0.0000000032    -3.4825414234
    9      C      -0.0000000039     3.4825413049     0.6980950807
   10      C       0.0000000000     3.4825413081    -0.6980950734
   11      C       0.0000000000    -3.4825413085     0.6980950720
   12      C       0.0000000036    -3.4825413036    -0.6980950752
   13      C       3.0327448388     1.4249343470     1.1762245639
   14      C       3.0327448460     1.4249343444    -1.1762245737
   15      C       3.0327448425    -1.4249343513     1.1762245734
   16      C       3.0327448440    -1.4249343534    -1.1762245646
   17      C      -3.0327448438     1.4249343538     1.1762245630
   18      C      -3.0327448429     1.4249343479    -1.1762245737
   19      C      -3.0327448468    -1.4249343518     1.1762245706
   20      C      -3.0327448404    -1.4249343502    -1.1762245625
   21      C       1.4249344050     1.1762247364     3.0327448103
   22      C       1.4249344115    -1.1762247434     3.0327448165
   23      C      -1.4249344023     1.1762247354     3.0327448177
   24      C      -1.4249344069    -1.1762247433     3.0327448216
   25      C       1.4249344071     1.1762247418    -3.0327448226
   26      C       1.4249344071    -1.1762247337    -3.0327448171
   27      C      -1.4249344101     1.1762247404    -3.0327448181
   28      C      -1.4249344080    -1.1762247333    -3.0327448105
   29      C       1.1762246634     3.0327447548     1.4249342407
   30      C      -1.1762246746     3.0327447573     1.4249342364
   31      C       1.1762246710     3.0327447667    -1.4249342397
   32      C      -1.1762246710     3.0327447660    -1.4249342395
   33      C       1.1762246699    -3.0327447668     1.4249342415
   34      C      -1.1762246729    -3.0327447675     1.4249342391
   35      C       1.1762246740    -3.0327447558    -1.4249342332
   36      C      -1.1762246661    -3.0327447532    -1.4249342353
   37      C       2.6011868719     0.7270743339     2.3057166999
   38      C       2.6011868784     0.7270743378    -2.3057167139
   39      C       2.6011868738    -0.7270743389     2.3057167114
   40      C       2.6011868738    -0.7270743395    -2.3057167087
   41      C      -2.6011868756     0.7270743420     2.3057167025
   42      C      -2.6011868756     0.7270743373    -2.3057167101
   43      C      -2.6011868769    -0.7270743426     2.3057167131
   44      C      -2.6011868703    -0.7270743338    -2.3057167044
   45      C       0.7270743330     2.3057168753     2.6011867561
   46      C       0.7270743414    -2.3057168812     2.6011867671
   47      C      -0.7270743339     2.3057168779     2.6011867564
   48      C      -0.7270743382    -2.3057168849     2.6011867672
   49      C       0.7270743385     2.3057168848    -2.6011867667
   50      C       0.7270743394    -2.3057168709    -2.6011867565
   51      C      -0.7270743386     2.3057168813    -2.6011867666
   52      C      -0.7270743356    -2.3057168687    -2.6011867561
   53      C       2.3057167594     2.6011867163     0.7270742526
   54      C      -2.3057167662     2.6011867206     0.7270742468
   55      C       2.3057167638     2.6011867203    -0.7270742561
   56      C      -2.3057167668     2.6011867207    -0.7270742576
   57      C       2.3057167689    -2.6011867209     0.7270742579
   58      C      -2.3057167687    -2.6011867212     0.7270742550
   59      C       2.3057167670    -2.6011867207    -0.7270742440
   60      C      -2.3057167627    -2.6011867173    -0.7270742488
 ----------------------------------------------------------------
 Nuclear Repulsion Energy =        8323.49484080 hartrees
 There are      180 alpha and      180 beta electrons
 Requested basis set is 6-31G
 There are 180 shells and 540 basis functions

 Total QAlloc Memory Limit  80000 MB
 Mega-Array Size      7821 MB
 MEM_STATIC part      8000 MB

 Using C-PCM dielectric factor f(eps) = (eps-1)/eps = 0.750000
 Discretize the solute cavity surface with Lebedev spheres
	Using 194 Lebedev grid points for each H atom
	Using 194 Lebedev grid points for other atoms
	Atomic van der Waals radii (Bondi set) will be scaled by 1.20
 Using smooth SwiG surface discretization
 Remove points where switching function is < 1.0e-08
 Keep 2988 surface tesserae and discard 8652 interior tesserae
 Molecular Surface Area = 413.700 Angst**2

 A cutoff of  1.0D-12 yielded  10830 shell pairs
 There are    119190 function pairs
 Smallest overlap matrix eigenvalue = 4.08E-04
 Guess from superposition of atomic densities
 Warning:  Energy on first SCF cycle will be non-variational
 SAD guess density has 360.000001 electrons

 -----------------------------------------------------------------------
  General SCF calculation program by
  Eric Jon Sundstrom, Paul Horn, Yuezhi Mao, Dmitri Zuev, Alec White,
  David Stuck, Shaama M.S., Shane Yost, Joonho Lee, David Small,
  Daniel Levine, Susi Lehtola, Hugh Burton, Evgeny Epifanovsky,
  Bang C. Huynh
 -----------------------------------------------------------------------
 Exchange:     0.2000 Hartree-Fock + 0.8000 wPBE + LR-HF
 Correlation:  1.0000 PBE
 Using SG-1 standard quadrature grid
 using 8 threads for integral computing
 -------------------------------------------------------
 OpenMP Integral computing Module                
 Release: version 1.0, May 2013, Q-Chem Inc. Pittsburgh 
 -------------------------------------------------------
 C-PCM solvent model [f = (eps-1)/eps], solve by matrix inversion
 A restricted SCF calculation will be
 performed using DIIS
 SCF converges when DIIS error is below 1.0e-08
 ---------------------------------------
  Cycle       Energy         DIIS error
 ---------------------------------------
    1   -2311.5354526600      4.76e-02  
    2   -2283.3280369088      1.44e-03  
    3   -2283.4670705924      2.73e-04  
    4   -2283.4742508851      3.80e-05  
    5   -2283.4744596008      1.21e-05  
    6   -2283.4744899941      4.53e-06  
    7   -2283.4744942159      1.77e-06  
    8   -2283.4744944393      6.85e-07  
    9   -2283.4744944670      3.91e-08  
   10   -2283.4744944671      1.16e-08  
   11   -2283.4744944672      6.40e-09  Convergence criterion met
 ---------------------------------------
 DFT Correlation          Energy = -12.60698620225749
 DFT Exchange             Energy = -212.80332855630897
 HF Exchange              Energy = -98.38527781433507
 Kinetic                  Energy =   0.00000000000000
 Nuclear Attraction       Energy =   0.00000000000000
 One-Electron             Energy = -19661.34987412910414
 SCRF wf-dependent energy Energy =  -2.57741184529914
 Total Coulomb            Energy = 9380.75354327944297
 Final Alpha MO Eigenvalues
            1           2           3           4           5           6
    1 -10.3294885 -10.3294550 -10.3294550 -10.3294550 -10.3294086 -10.3294085
            7           8           9          10          11          12
    1 -10.3293747 -10.3293747 -10.3293747 -10.3293330 -10.3293329 -10.3293329
           13          14          15          16          17          18
    1 -10.3293089 -10.3292961 -10.3292961 -10.3292961 -10.3292949 -10.3292559
           19          20          21          22          23          24
    1 -10.3292559 -10.3292559 -10.3292552 -10.3292552 -10.3292369 -10.3292369
           25          26          27          28          29          30
    1 -10.3292369 -10.3292362 -10.3292362 -10.3292361 -10.3292205 -10.3292204
           31          32          33          34          35          36
    1 -10.3289351 -10.3289351 -10.3289351 -10.3289246 -10.3289246 -10.3289246
           37          38          39          40          41          42
    1 -10.3288227 -10.3288227 -10.3288227 -10.3288145 -10.3288145 -10.3288145
           43          44          45          46          47          48
    1 -10.3288108 -10.3288108 -10.3287927 -10.3287927 -10.3287707 -10.3287707
           49          50          51          52          53          54
    1 -10.3287707 -10.3287019 -10.3287019 -10.3287018 -10.3286939 -10.3286105
           55          56          57          58          59          60
    1 -10.3286105 -10.3286105 -10.3286086 -10.3286086 -10.3286085 -10.3285945
           61          62          63          64          65          66
    1  -1.1051207  -1.0848347  -1.0848347  -1.0848346  -1.0459255  -1.0459254
           67          68          69          70          71          72
    1  -1.0459008  -1.0459007  -1.0459007  -1.0051413  -1.0051412  -1.0051412
           73          74          75          76          77          78
    1  -0.9712195  -0.9712194  -0.9712194  -0.9711993  -0.9191041  -0.9191041
           79          80          81          82          83          84
    1  -0.9191041  -0.9190817  -0.9190816  -0.9010033  -0.9009861  -0.9009861
           85          86          87          88          89          90
    1  -0.9009860  -0.8412492  -0.8412491  -0.8412363  -0.8412362  -0.8412362
           91          92          93          94          95          96
    1  -0.8284978  -0.8284978  -0.8284978  -0.7845226  -0.7845226  -0.7845226
           97          98          99         100         101         102
    1  -0.7438330  -0.7438329  -0.7438064  -0.7438064  -0.7438064  -0.7404933
          103         104         105         106         107         108
    1  -0.7404932  -0.7404932  -0.7167224  -0.6724169  -0.6724169  -0.6724169
          109         110         111         112         113         114
    1  -0.6723152  -0.6443623  -0.6443623  -0.6443623  -0.6443421  -0.6443421
          115         116         117         118         119         120
    1  -0.6291062  -0.6291062  -0.6291062  -0.6014486  -0.6014486  -0.6014486
          121         122         123         124         125         126
    1  -0.5981467  -0.5746343  -0.5746343  -0.5746342  -0.5746180  -0.5733396
          127         128         129         130         131         132
    1  -0.5733396  -0.5733395  -0.5542600  -0.5542600  -0.5542600  -0.5542443
          133         134         135         136         137         138
    1  -0.5542443  -0.5380047  -0.5380047  -0.5380047  -0.5379984  -0.5267740
          139         140         141         142         143         144
    1  -0.5267740  -0.5267740  -0.5244490  -0.5244489  -0.5244104  -0.5244104
          145         146         147         148         149         150
    1  -0.5244104  -0.5069641  -0.5069394  -0.5069393  -0.5069393  -0.4612077
          151         152         153         154         155         156
    1  -0.4612076  -0.4612076  -0.4594998  -0.4594998  -0.4594998  -0.4594391
          157         158         159         160         161         162
    1  -0.4594391  -0.4471635  -0.4471635  -0.4470690  -0.4470689  -0.4470689
          163         164         165         166         167         168
    1  -0.4422129  -0.4422128  -0.4422128  -0.4421619  -0.3628971  -0.3628929
          169         170         171         172         173         174
    1  -0.3628929  -0.3628929  -0.3560956  -0.3560956  -0.3560956  -0.3560749
          175         176         177         178         179         180
    1  -0.3560749  -0.3020280  -0.3020279  -0.3020169  -0.3020169  -0.3020169
          181         182         183         184         185         186
    1  -0.0706486  -0.0706486  -0.0706486  -0.0211563  -0.0211563  -0.0211563
          187         188         189         190         191         192
    1   0.0350965   0.0350965   0.0350965   0.0351784   0.0351784   0.0351801
          193         194         195         196         197         198
    1   0.0351801   0.0351801   0.1052120   0.1052120   0.1052120   0.1052414
          199         200         201         202         203         204
    1   0.1052415   0.1288392   0.1288392   0.1288392   0.1289432   0.1547757
          205         206         207         208         209         210
    1   0.1547757   0.1547757   0.1548451   0.1773015   0.1773015   0.1773015
          211         212         213         214         215         216
    1   0.2041094   0.2041094   0.2041094   0.2352641   0.2352641   0.2353924
          217         218         219         220         221         222
    1   0.2353924   0.2353924   0.2629405   0.2629405   0.2629405   0.2701063
          223         224         225         226         227         228
    1   0.2701063   0.2701063   0.2818631   0.2818631   0.2818632   0.2820381
          229         230         231         232         233         234
    1   0.3154960   0.3154960   0.3154960   0.3155772   0.3155772   0.3394403
          235         236         237         238         239         240
    1   0.3394403   0.3394403   0.3395137   0.3747694   0.3747694   0.3748621
          241         242         243         244         245         246
    1   0.3748621   0.3748621   0.4012262   0.4012262   0.4012262   0.4212476
          247         248         249         250         251         252
    1   0.4212477   0.4212477   0.4497376   0.4497376   0.4497377   0.4693218
          253         254         255         256         257         258
    1   0.4693218   0.4693218   0.4693553   0.4693554   0.5304236   0.5304951
          259         260         261         262         263         264
    1   0.5304951   0.5304951   0.5549792   0.5551659   0.5551659   0.5551660
          265         266         267         268         269         270
    1   0.5591249   0.5591249   0.5591249   0.5592801   0.5621980   0.5621981
          271         272         273         274         275         276
    1   0.5622201   0.5622201   0.5622201   0.5673109   0.5680009   0.5680009
          277         278         279         280         281         282
    1   0.5680009   0.5900513   0.5900514   0.5900514   0.6084801   0.6084801
          283         284         285         286         287         288
    1   0.6086050   0.6086050   0.6086050   0.6160926   0.6160926   0.6160926
          289         290         291         292         293         294
    1   0.6215551   0.6215551   0.6215551   0.6218339   0.6340113   0.6340114
          295         296         297         298         299         300
    1   0.6340114   0.6340927   0.6393727   0.6393728   0.6393842   0.6393842
          301         302         303         304         305         306
    1   0.6393842   0.6539889   0.6539889   0.6539889   0.6613561   0.6613562
          307         308         309         310         311         312
    1   0.6614982   0.6614982   0.6614983   0.6650137   0.6650138   0.6650647
          313         314         315         316         317         318
    1   0.6650648   0.6650648   0.6675808   0.6675808   0.6675808   0.6676255
          319         320         321         322         323         324
    1   0.6768426   0.6768426   0.6768426   0.6815144   0.6815144   0.6815145
          325         326         327         328         329         330
    1   0.6850008   0.6896739   0.6896739   0.6902592   0.6902592   0.6902592
          331         332         333         334         335         336
    1   0.7238231   0.7238231   0.7238394   0.7238394   0.7238394   0.7309009
          337         338         339         340         341         342
    1   0.7309009   0.7309166   0.7309166   0.7309166   0.7411577   0.7411578
          343         344         345         346         347         348
    1   0.7411578   0.7476647   0.7476647   0.7476647   0.7523271   0.7523271
          349         350         351         352         353         354
    1   0.7523271   0.7528943   0.7601009   0.7601009   0.7601009   0.7602072
          355         356         357         358         359         360
    1   0.7623757   0.7623758   0.7623758   0.7625889   0.7639499   0.7639499
          361         362         363         364         365         366
    1   0.7639564   0.7639564   0.7639564   0.7782045   0.7782046   0.7782046
          367         368         369         370         371         372
    1   0.7864703   0.7864704   0.7864704   0.7903029   0.7908174   0.7908175
          373         374         375         376         377         378
    1   0.7908175   0.7909124   0.8080274   0.8080274   0.8080274   0.8080952
          379         380         381         382         383         384
    1   0.8110511   0.8110511   0.8110511   0.8112874   0.8112875   0.8112875
          385         386         387         388         389         390
    1   0.8754163   0.8754163   0.8754551   0.8754551   0.8754552   0.8984246
          391         392         393         394         395         396
    1   0.8984246   0.8984246   0.9418246   0.9418246   0.9418246   0.9418353
          397         398         399         400         401         402
    1   0.9619954   0.9619954   0.9621227   0.9621227   0.9621227   0.9768886
          403         404         405         406         407         408
    1   0.9768886   0.9769565   0.9769565   0.9769565   0.9973557   0.9973557
          409         410         411         412         413         414
    1   0.9973587   0.9973588   0.9973588   1.0068305   1.0068305   1.0068305
          415         416         417         418         419         420
    1   1.0068541   1.0355693   1.0355693   1.0355693   1.0426803   1.0426803
          421         422         423         424         425         426
    1   1.0426803   1.0428945   1.0639823   1.0639823   1.0639823   1.0653320
          427         428         429         430         431         432
    1   1.0653320   1.0653320   1.0653366   1.0653366   1.1321471   1.1321471
          433         434         435         436         437         438
    1   1.1321471   1.1390834   1.1390834   1.1390835   1.1427826   1.1427826
          439         440         441         442         443         444
    1   1.1427826   1.1448747   1.1448747   1.1448747   1.1694325   1.1694325
          445         446         447         448         449         450
    1   1.1694325   1.1694703   1.1694703   1.1895468   1.1895468   1.1895636
          451         452         453         454         455         456
    1   1.1895636   1.1895636   1.1902264   1.1902265   1.1902265   1.1903871
          457         458         459         460         461         462
    1   1.1904887   1.1905726   1.1905726   1.1905726   1.1973209   1.1973209
          463         464         465         466         467         468
    1   1.1973376   1.1973377   1.1973377   1.2469054   1.2469055   1.2469693
          469         470         471         472         473         474
    1   1.2469693   1.2469693   1.2491795   1.2491795   1.2491795   1.2492384
          475         476         477         478         479         480
    1   1.2492384   1.2492385   1.2493019   1.2890743   1.2890743   1.2890743
          481         482         483         484         485         486
    1   1.3105796   1.3105796   1.3105797   1.3107546   1.3523210   1.3523210
          487         488         489         490         491         492
    1   1.3523770   1.3523770   1.3523770   1.3641660   1.3641660   1.3641660
          493         494         495         496         497         498
    1   1.3641902   1.3641902   1.3757458   1.3757459   1.3757459   1.3793374
          499         500         501         502         503         504
    1   1.3793580   1.3793581   1.3793581   1.4518037   1.4518037   1.4518038
          505         506         507         508         509         510
    1   1.4765630   1.4765630   1.4765630   1.4945659   1.4945659   1.4945659
          511         512         513         514         515         516
    1   1.5185090   1.5185090   1.5185090   1.5186237   1.5186238   1.6211154
          517         518         519         520         521         522
    1   1.7446121   1.7446122   1.7447592   1.7447592   1.7447593   1.8739133
          523         524         525         526         527         528
    1   1.8739133   1.8739133   1.9942715   1.9942715   1.9942716   1.9948113
          529         530         531         532         533         534
    1   2.2092878   2.2092878   2.2092878   2.2096970   2.2096971   2.4084516
          535         536         537         538         539         540
    1   2.4090976   2.4090976   2.4090977   2.6913939   2.6913939   2.6913940
 SCF time:   CPU 1606.53s  wall 376.00s 

************** Final PCM Free Energy Summary **************
 G_electrostatic  =      -0.00239179 hartree =      -1.50087134 kcal/mol
 G_cavitation     =       0.00000000 hartree =       0.00000000 kcal/mol
 G_dispersion     =       0.00000000 hartree =       0.00000000 kcal/mol
 G_repulsion      =       0.00000000 hartree =       0.00000000 kcal/mol
 --------------------------------------------------
 Non-electrostatic Free Energy =       0.00000000 hartree =       0.00000000 kcal/mol
 Total                         =      -0.00239179 hartree =      -1.50087134 kcal/mol
 --------------------------------------------------
 SCF Energy (H0 + V/2)                       =   -2283.47449447 
 Solute Internal Energy (H0)                 =   -2283.47210268 
 Total Free Energy (H0 + V/2 + non-elec)     =   -2283.47449447 hartree
                                             = -1432901.87206510 kcal/mol
***********************************************************

 SCF   energy in the final basis set =    -2283.4744944672
 Total energy in the final basis set =    -2283.4744944672

 --------------------------------------------------------------

                    Orbital Energies (a.u.)
 --------------------------------------------------------------

 Alpha MOs
 -- Occupied --
-10.3295 -10.3295 -10.3295 -10.3295 -10.3294 -10.3294 -10.3294 -10.3294
-10.3294 -10.3293 -10.3293 -10.3293 -10.3293 -10.3293 -10.3293 -10.3293
-10.3293 -10.3293 -10.3293 -10.3293 -10.3293 -10.3293 -10.3292 -10.3292
-10.3292 -10.3292 -10.3292 -10.3292 -10.3292 -10.3292 -10.3289 -10.3289
-10.3289 -10.3289 -10.3289 -10.3289 -10.3288 -10.3288 -10.3288 -10.3288
-10.3288 -10.3288 -10.3288 -10.3288 -10.3288 -10.3288 -10.3288 -10.3288
-10.3288 -10.3287 -10.3287 -10.3287 -10.3287 -10.3286 -10.3286 -10.3286
-10.3286 -10.3286 -10.3286 -10.3286  -1.1051  -1.0848  -1.0848  -1.0848
 -1.0459  -1.0459  -1.0459  -1.0459  -1.0459  -1.0051  -1.0051  -1.0051
 -0.9712  -0.9712  -0.9712  -0.9712  -0.9191  -0.9191  -0.9191  -0.9191
 -0.9191  -0.9010  -0.9010  -0.9010  -0.9010  -0.8412  -0.8412  -0.8412
 -0.8412  -0.8412  -0.8285  -0.8285  -0.8285  -0.7845  -0.7845  -0.7845
 -0.7438  -0.7438  -0.7438  -0.7438  -0.7438  -0.7405  -0.7405  -0.7405
 -0.7167  -0.6724  -0.6724  -0.6724  -0.6723  -0.6444  -0.6444  -0.6444
 -0.6443  -0.6443  -0.6291  -0.6291  -0.6291  -0.6014  -0.6014  -0.6014
 -0.5981  -0.5746  -0.5746  -0.5746  -0.5746  -0.5733  -0.5733  -0.5733
 -0.5543  -0.5543  -0.5543  -0.5542  -0.5542  -0.5380  -0.5380  -0.5380
 -0.5380  -0.5268  -0.5268  -0.5268  -0.5244  -0.5244  -0.5244  -0.5244
 -0.5244  -0.5070  -0.5069  -0.5069  -0.5069  -0.4612  -0.4612  -0.4612
 -0.4595  -0.4595  -0.4595  -0.4594  -0.4594  -0.4472  -0.4472  -0.4471
 -0.4471  -0.4471  -0.4422  -0.4422  -0.4422  -0.4422  -0.3629  -0.3629
 -0.3629  -0.3629  -0.3561  -0.3561  -0.3561  -0.3561  -0.3561  -0.3020
 -0.3020  -0.3020  -0.3020  -0.3020
 -- Virtual --
 -0.0706  -0.0706  -0.0706  -0.0212  -0.0212  -0.0212   0.0351   0.0351
  0.0351   0.0352   0.0352   0.0352   0.0352   0.0352   0.1052   0.1052
  0.1052   0.1052   0.1052   0.1288   0.1288   0.1288   0.1289   0.1548
  0.1548   0.1548   0.1548   0.1773   0.1773   0.1773   0.2041   0.2041
  0.2041   0.2353   0.2353   0.2354   0.2354   0.2354   0.2629   0.2629
  0.2629   0.2701   0.2701   0.2701   0.2819   0.2819   0.2819   0.2820
  0.3155   0.3155   0.3155   0.3156   0.3156   0.3394   0.3394   0.3394
  0.3395   0.3748   0.3748   0.3749   0.3749   0.3749   0.4012   0.4012
  0.4012   0.4212   0.4212   0.4212   0.4497   0.4497   0.4497   0.4693
  0.4693   0.4693   0.4694   0.4694   0.5304   0.5305   0.5305   0.5305
  0.5550   0.5552   0.5552   0.5552   0.5591   0.5591   0.5591   0.5593
  0.5622   0.5622   0.5622   0.5622   0.5622   0.5673   0.5680   0.5680
  0.5680   0.5901   0.5901   0.5901   0.6085   0.6085   0.6086   0.6086
  0.6086   0.6161   0.6161   0.6161   0.6216   0.6216   0.6216   0.6218
  0.6340   0.6340   0.6340   0.6341   0.6394   0.6394   0.6394   0.6394
  0.6394   0.6540   0.6540   0.6540   0.6614   0.6614   0.6615   0.6615
  0.6615   0.6650   0.6650   0.6651   0.6651   0.6651   0.6676   0.6676
  0.6676   0.6676   0.6768   0.6768   0.6768   0.6815   0.6815   0.6815
  0.6850   0.6897   0.6897   0.6903   0.6903   0.6903   0.7238   0.7238
  0.7238   0.7238   0.7238   0.7309   0.7309   0.7309   0.7309   0.7309
  0.7412   0.7412   0.7412   0.7477   0.7477   0.7477   0.7523   0.7523
  0.7523   0.7529   0.7601   0.7601   0.7601   0.7602   0.7624   0.7624
  0.7624   0.7626   0.7639   0.7639   0.7640   0.7640   0.7640   0.7782
  0.7782   0.7782   0.7865   0.7865   0.7865   0.7903   0.7908   0.7908
  0.7908   0.7909   0.8080   0.8080   0.8080   0.8081   0.8111   0.8111
  0.8111   0.8113   0.8113   0.8113   0.8754   0.8754   0.8755   0.8755
  0.8755   0.8984   0.8984   0.8984   0.9418   0.9418   0.9418   0.9418
  0.9620   0.9620   0.9621   0.9621   0.9621   0.9769   0.9769   0.9770
  0.9770   0.9770   0.9974   0.9974   0.9974   0.9974   0.9974   1.0068
  1.0068   1.0068   1.0069   1.0356   1.0356   1.0356   1.0427   1.0427
  1.0427   1.0429   1.0640   1.0640   1.0640   1.0653   1.0653   1.0653
  1.0653   1.0653   1.1321   1.1321   1.1321   1.1391   1.1391   1.1391
  1.1428   1.1428   1.1428   1.1449   1.1449   1.1449   1.1694   1.1694
  1.1694   1.1695   1.1695   1.1895   1.1895   1.1896   1.1896   1.1896
  1.1902   1.1902   1.1902   1.1904   1.1905   1.1906   1.1906   1.1906
  1.1973   1.1973   1.1973   1.1973   1.1973   1.2469   1.2469   1.2470
  1.2470   1.2470   1.2492   1.2492   1.2492   1.2492   1.2492   1.2492
  1.2493   1.2891   1.2891   1.2891   1.3106   1.3106   1.3106   1.3108
  1.3523   1.3523   1.3524   1.3524   1.3524   1.3642   1.3642   1.3642
  1.3642   1.3642   1.3757   1.3757   1.3757   1.3793   1.3794   1.3794
  1.3794   1.4518   1.4518   1.4518   1.4766   1.4766   1.4766   1.4946
  1.4946   1.4946   1.5185   1.5185   1.5185   1.5186   1.5186   1.6211
  1.7446   1.7446   1.7448   1.7448   1.7448   1.8739   1.8739   1.8739
  1.9943   1.9943   1.9943   1.9948   2.2093   2.2093   2.2093   2.2097
  2.2097   2.4085   2.4091   2.4091   2.4091   2.6914   2.6914   2.6914
 --------------------------------------------------------------

          Ground-State Mulliken Net Atomic Charges

     Atom                 Charge (a.u.)
  ----------------------------------------
      1 C                     0.000229
      2 C                     0.000229
      3 C                     0.000229
      4 C                     0.000229
      5 C                     0.000229
      6 C                     0.000229
      7 C                     0.000229
      8 C                     0.000229
      9 C                     0.000229
     10 C                     0.000229
     11 C                     0.000229
     12 C                     0.000229
     13 C                    -0.000089
     14 C                    -0.000089
     15 C                    -0.000089
     16 C                    -0.000089
     17 C                    -0.000089
     18 C                    -0.000089
     19 C                    -0.000089
     20 C                    -0.000089
     21 C                    -0.000089
     22 C                    -0.000089
     23 C                    -0.000089
     24 C                    -0.000089
     25 C                    -0.000089
     26 C                    -0.000089
     27 C                    -0.000089
     28 C                    -0.000089
     29 C                    -0.000089
     30 C                    -0.000089
     31 C                    -0.000089
     32 C                    -0.000089
     33 C                    -0.000089
     34 C                    -0.000089
     35 C                    -0.000089
     36 C                    -0.000089
     37 C                    -0.000025
     38 C                    -0.000025
     39 C                    -0.000025
     40 C                    -0.000025
     41 C                    -0.000025
     42 C                    -0.000025
     43 C                    -0.000025
     44 C                    -0.000025
     45 C                    -0.000025
     46 C                    -0.000025
     47 C                    -0.000025
     48 C                    -0.000025
     49 C                    -0.000025
     50 C                    -0.000025
     51 C                    -0.000025
     52 C                    -0.000025
     53 C                    -0.000025
     54 C                    -0.000025
     55 C                    -0.000025
     56 C                    -0.000025
     57 C                    -0.000025
     58 C                    -0.000025
     59 C                    -0.000025
     60 C                    -0.000025
  ----------------------------------------
  Sum of atomic charges =     0.000000

 -----------------------------------------------------------------
                    Cartesian Multipole Moments
 -----------------------------------------------------------------
    Charge (ESU x 10^10)
                 0.0000
    Dipole Moment (Debye)
         X       0.0000      Y      -0.0000      Z       0.0000
       Tot       0.0000
    Quadrupole Moments (Debye-Ang)
        XX    -334.8468     XY      -0.0000     YY    -334.8468
        XZ      -0.0000     YZ      -0.0000     ZZ    -334.8467
    Octopole Moments (Debye-Ang^2)
       XXX       0.0000    XXY       0.0000    XYY       0.0000
       YYY      -0.0000    XXZ       0.0000    XYZ       0.0000
       YYZ      -0.0000    XZZ       0.0000    YZZ      -0.0000
       ZZZ       0.0000
    Hexadecapole Moments (Debye-Ang^3)
      XXXX   -8764.4834   XXXY       0.0000   XXYY   -2921.4313
      XYYY       0.0000   YYYY   -8764.4832   XXXZ       0.0000
      XXYZ       0.0000   XYYZ       0.0000   YYYZ       0.0000
      XXZZ   -2921.4312   XYZZ       0.0000   YYZZ   -2921.4313
      XZZZ      -0.0000   YZZZ       0.0000   ZZZZ   -8764.4832
 -----------------------------------------------------------------
 Mayer SCF Bond Order, atomic valence on the diagonal:

            1           2           3           4           5           6
    1   3.8554550   1.4287991   0.0002693   0.0000401   0.0022340   0.0004672
    2   1.4287991   3.8554550   0.0000401   0.0002693   0.0022340   0.0004672
    3   0.0002693   0.0000401   3.8554550   1.4287991   0.0004672   0.0022340
    4   0.0000401   0.0002693   1.4287991   3.8554550   0.0004672   0.0022340
    5   0.0022340   0.0022340   0.0004672   0.0004672   3.8554548   1.4287991
    6   0.0004672   0.0004672   0.0022340   0.0022340   1.4287991   3.8554548
    7   0.0022340   0.0022340   0.0004672   0.0004672   0.0002693   0.0000401
    8   0.0004672   0.0004672   0.0022340   0.0022340   0.0000401   0.0002693
    9   0.0022340   0.0004672   0.0022340   0.0004672   0.0022340   0.0022340
   10   0.0022340   0.0004672   0.0022340   0.0004672   0.0004672   0.0004672
   11   0.0004672   0.0022340   0.0004672   0.0022340   0.0022340   0.0022340
   12   0.0004672   0.0022340   0.0004672   0.0022340   0.0004672   0.0004672
   13   1.1455080  -0.0079394   0.0001629   0.0002762   0.0141600   0.0019784
   14   1.1455080  -0.0079394   0.0001629   0.0002762   0.0006334   0.0004676
   15  -0.0079394   1.1455080   0.0002762   0.0001629   0.0141600   0.0019784
   16  -0.0079394   1.1455080   0.0002762   0.0001629   0.0006334   0.0004676
   17   0.0001629   0.0002762   1.1455080  -0.0079394   0.0019784   0.0141600
   18   0.0001629   0.0002762   1.1455080  -0.0079394   0.0004676   0.0006334
   19   0.0002762   0.0001629  -0.0079394   1.1455080   0.0019784   0.0141600
   20   0.0002762   0.0001629  -0.0079394   1.1455080   0.0004676   0.0006334
   21   0.0085331   0.0024089   0.0003558   0.0023300   1.1455079  -0.0079394
   22   0.0024089   0.0085331   0.0023300   0.0003558   1.1455079  -0.0079394
   23   0.0003558   0.0023300   0.0085331   0.0024089  -0.0079394   1.1455079
   24   0.0023300   0.0003558   0.0024089   0.0085331  -0.0079394   1.1455078
   25   0.0085331   0.0024089   0.0003558   0.0023300   0.0001629   0.0002762
   26   0.0024089   0.0085331   0.0023300   0.0003558   0.0001629   0.0002762
   27   0.0003558   0.0023300   0.0085331   0.0024089   0.0002762   0.0001629
   28   0.0023300   0.0003558   0.0024089   0.0085331   0.0002762   0.0001629
   29   0.0141600   0.0019784   0.0006334   0.0004676   0.0085331   0.0024089
   30   0.0006334   0.0004676   0.0141600   0.0019784   0.0024089   0.0085331
   31   0.0141600   0.0019784   0.0006334   0.0004676   0.0003558   0.0023300
   32   0.0006334   0.0004676   0.0141600   0.0019784   0.0023300   0.0003558
   33   0.0019784   0.0141600   0.0004676   0.0006334   0.0085331   0.0024089
   34   0.0004676   0.0006334   0.0019784   0.0141600   0.0024089   0.0085331
   35   0.0019784   0.0141600   0.0004676   0.0006334   0.0003558   0.0023300
   36   0.0004676   0.0006334   0.0019784   0.0141600   0.0023300   0.0003558
   37  -0.0079195   0.0302342   0.0004918   0.0001628  -0.0110060   0.0141744
   38  -0.0079195   0.0302342   0.0004918   0.0001628   0.0004676   0.0000633
   39   0.0302342  -0.0079195   0.0001628   0.0004918  -0.0110060   0.0141744
   40   0.0302342  -0.0079195   0.0001628   0.0004918   0.0004676   0.0000633
   41   0.0004918   0.0001628  -0.0079195   0.0302342   0.0141744  -0.0110060
   42   0.0004918   0.0001628  -0.0079195   0.0302342   0.0000633   0.0004676
   43   0.0001628   0.0004918   0.0302342  -0.0079195   0.0141744  -0.0110060
   44   0.0001628   0.0004918   0.0302342  -0.0079195   0.0000633   0.0004676
   45   0.0023983   0.0094733  -0.0000003   0.0003559  -0.0079194   0.0302342
   46   0.0094733   0.0023983   0.0003559  -0.0000003  -0.0079194   0.0302342
   47  -0.0000003   0.0003559   0.0023983   0.0094733   0.0302342  -0.0079194
   48   0.0003559  -0.0000003   0.0094733   0.0023983   0.0302342  -0.0079194
   49   0.0023983   0.0094733  -0.0000003   0.0003559   0.0004918   0.0001628
   50   0.0094733   0.0023983   0.0003559  -0.0000003   0.0004918   0.0001628
   51  -0.0000003   0.0003559   0.0023983   0.0094733   0.0001628   0.0004918
   52   0.0003559  -0.0000003   0.0094733   0.0023983   0.0001628   0.0004918
   53  -0.0110059   0.0141744   0.0004676   0.0000633   0.0023983   0.0094733
   54   0.0004676   0.0000633  -0.0110059   0.0141744   0.0094733   0.0023983
   55  -0.0110059   0.0141744   0.0004676   0.0000633  -0.0000003   0.0003559
   56   0.0004676   0.0000633  -0.0110059   0.0141744   0.0003559  -0.0000003
   57   0.0141744  -0.0110059   0.0000633   0.0004676   0.0023983   0.0094733
   58   0.0000633   0.0004676   0.0141744  -0.0110059   0.0094733   0.0023983
   59   0.0141744  -0.0110059   0.0000633   0.0004676  -0.0000003   0.0003559
   60   0.0000633   0.0004676   0.0141744  -0.0110059   0.0003559  -0.0000003
            7           8           9          10          11          12
    1   0.0022340   0.0004672   0.0022340   0.0022340   0.0004672   0.0004672
    2   0.0022340   0.0004672   0.0004672   0.0004672   0.0022340   0.0022340
    3   0.0004672   0.0022340   0.0022340   0.0022340   0.0004672   0.0004672
    4   0.0004672   0.0022340   0.0004672   0.0004672   0.0022340   0.0022340
    5   0.0002693   0.0000401   0.0022340   0.0004672   0.0022340   0.0004672
    6   0.0000401   0.0002693   0.0022340   0.0004672   0.0022340   0.0004672
    7   3.8554548   1.4287991   0.0004672   0.0022340   0.0004672   0.0022340
    8   1.4287991   3.8554548   0.0004672   0.0022340   0.0004672   0.0022340
    9   0.0004672   0.0004672   3.8554549   1.4287990   0.0002693   0.0000401
   10   0.0022340   0.0022340   1.4287990   3.8554549   0.0000401   0.0002693
   11   0.0004672   0.0004672   0.0002693   0.0000401   3.8554549   1.4287990
   12   0.0022340   0.0022340   0.0000401   0.0002693   1.4287990   3.8554549
   13   0.0006334   0.0004676   0.0085331   0.0024089   0.0003558   0.0023300
   14   0.0141600   0.0019784   0.0024089   0.0085331   0.0023300   0.0003558
   15   0.0006334   0.0004676   0.0003558   0.0023300   0.0085331   0.0024089
   16   0.0141600   0.0019784   0.0023300   0.0003558   0.0024089   0.0085331
   17   0.0004676   0.0006334   0.0085331   0.0024089   0.0003558   0.0023300
   18   0.0019784   0.0141600   0.0024089   0.0085331   0.0023300   0.0003558
   19   0.0004676   0.0006334   0.0003558   0.0023300   0.0085331   0.0024089
   20   0.0019784   0.0141600   0.0023300   0.0003558   0.0024089   0.0085331
   21   0.0001629   0.0002762   0.0141600   0.0019784   0.0006334   0.0004676
   22   0.0001629   0.0002762   0.0006334   0.0004676   0.0141600   0.0019784
   23   0.0002762   0.0001629   0.0141600   0.0019784   0.0006334   0.0004676
   24   0.0002762   0.0001629   0.0006334   0.0004676   0.0141600   0.0019784
   25   1.1455079  -0.0079394   0.0019784   0.0141600   0.0004676   0.0006334
   26   1.1455079  -0.0079394   0.0004676   0.0006334   0.0019784   0.0141600
   27  -0.0079394   1.1455079   0.0019784   0.0141600   0.0004676   0.0006334
   28  -0.0079394   1.1455079   0.0004676   0.0006334   0.0019784   0.0141600
   29   0.0003558   0.0023300   1.1455079  -0.0079394   0.0001629   0.0002762
   30   0.0023300   0.0003558   1.1455079  -0.0079394   0.0001629   0.0002762
   31   0.0085331   0.0024089  -0.0079394   1.1455079   0.0002762   0.0001629
   32   0.0024089   0.0085331  -0.0079394   1.1455079   0.0002762   0.0001629
   33   0.0003558   0.0023300   0.0001629   0.0002762   1.1455079  -0.0079394
   34   0.0023300   0.0003558   0.0001629   0.0002762   1.1455079  -0.0079394
   35   0.0085331   0.0024089   0.0002762   0.0001629  -0.0079394   1.1455079
   36   0.0024089   0.0085331   0.0002762   0.0001629  -0.0079394   1.1455079
   37   0.0004676   0.0000633   0.0023983   0.0094733  -0.0000003   0.0003559
   38  -0.0110060   0.0141744   0.0094733   0.0023983   0.0003559  -0.0000003
   39   0.0004676   0.0000633  -0.0000003   0.0003559   0.0023983   0.0094733
   40  -0.0110060   0.0141744   0.0003559  -0.0000003   0.0094733   0.0023983
   41   0.0000633   0.0004676   0.0023983   0.0094733  -0.0000003   0.0003559
   42   0.0141744  -0.0110060   0.0094733   0.0023983   0.0003559  -0.0000003
   43   0.0000633   0.0004676  -0.0000003   0.0003559   0.0023983   0.0094733
   44   0.0141744  -0.0110060   0.0003559  -0.0000003   0.0094733   0.0023983
   45   0.0004918   0.0001628  -0.0110060   0.0141744   0.0004676   0.0000633
   46   0.0004918   0.0001628   0.0004676   0.0000633  -0.0110060   0.0141744
   47   0.0001628   0.0004918  -0.0110060   0.0141744   0.0004676   0.0000633
   48   0.0001628   0.0004918   0.0004676   0.0000633  -0.0110060   0.0141744
   49  -0.0079194   0.0302342   0.0141744  -0.0110060   0.0000633   0.0004676
   50  -0.0079194   0.0302342   0.0000633   0.0004676   0.0141744  -0.0110060
   51   0.0302342  -0.0079194   0.0141744  -0.0110060   0.0000633   0.0004676
   52   0.0302342  -0.0079194   0.0000633   0.0004676   0.0141744  -0.0110060
   53  -0.0000003   0.0003559  -0.0079194   0.0302342   0.0004918   0.0001628
   54   0.0003559  -0.0000003  -0.0079194   0.0302342   0.0004918   0.0001628
   55   0.0023983   0.0094733   0.0302342  -0.0079194   0.0001628   0.0004918
   56   0.0094733   0.0023983   0.0302342  -0.0079194   0.0001628   0.0004918
   57  -0.0000003   0.0003559   0.0004918   0.0001628  -0.0079194   0.0302342
   58   0.0003559  -0.0000003   0.0004918   0.0001628  -0.0079194   0.0302342
   59   0.0023983   0.0094733   0.0001628   0.0004918   0.0302342  -0.0079194
   60   0.0094733   0.0023983   0.0001628   0.0004918   0.0302342  -0.0079194
           13          14          15          16          17          18
    1   1.1455080   1.1455080  -0.0079394  -0.0079394   0.0001629   0.0001629
    2  -0.0079394  -0.0079394   1.1455080   1.1455080   0.0002762   0.0002762
    3   0.0001629   0.0001629   0.0002762   0.0002762   1.1455080   1.1455080
    4   0.0002762   0.0002762   0.0001629   0.0001629  -0.0079394  -0.0079394
    5   0.0141600   0.0006334   0.0141600   0.0006334   0.0019784   0.0004676
    6   0.0019784   0.0004676   0.0019784   0.0004676   0.0141600   0.0006334
    7   0.0006334   0.0141600   0.0006334   0.0141600   0.0004676   0.0019784
    8   0.0004676   0.0019784   0.0004676   0.0019784   0.0006334   0.0141600
    9   0.0085331   0.0024089   0.0003558   0.0023300   0.0085331   0.0024089
   10   0.0024089   0.0085331   0.0023300   0.0003558   0.0024089   0.0085331
   11   0.0003558   0.0023300   0.0085331   0.0024089   0.0003558   0.0023300
   12   0.0023300   0.0003558   0.0024089   0.0085331   0.0023300   0.0003558
   13   3.8555080  -0.0109390   0.0302120   0.0085433   0.0023297   0.0004907
   14  -0.0109390   3.8555080   0.0085433   0.0302120   0.0004907   0.0023297
   15   0.0302120   0.0085433   3.8555080  -0.0109390   0.0000631   0.0000403
   16   0.0085433   0.0302120  -0.0109390   3.8555080   0.0000403   0.0000631
   17   0.0023297   0.0004907   0.0000631   0.0000403   3.8555080  -0.0109390
   18   0.0004907   0.0023297   0.0000403   0.0000631  -0.0109390   3.8555080
   19   0.0000631   0.0000403   0.0023297   0.0004907   0.0302120   0.0085433
   20   0.0000403   0.0000631   0.0004907   0.0023297   0.0085433   0.0302120
   21  -0.0080855   0.0022316   0.0141713  -0.0000012   0.0094651   0.0004671
   22   0.0141713  -0.0000012  -0.0080855   0.0022316   0.0004645   0.0001629
   23   0.0094651   0.0004671   0.0004645   0.0001629  -0.0080855   0.0022316
   24   0.0004645   0.0001629   0.0094651   0.0004671   0.0141713  -0.0000012
   25   0.0022316  -0.0080855  -0.0000012   0.0141713   0.0004671   0.0094651
   26  -0.0000012   0.0141713   0.0022316  -0.0080855   0.0001629   0.0004645
   27   0.0004671   0.0094651   0.0001629   0.0004645   0.0022316  -0.0080855
   28   0.0001629   0.0004645   0.0004671   0.0094651  -0.0000012   0.0141713
   29  -0.0080855   0.0141713   0.0094651   0.0004645   0.0022316  -0.0000012
   30   0.0022316  -0.0000012   0.0004671   0.0001629  -0.0080855   0.0141713
   31   0.0141713  -0.0080855   0.0004645   0.0094651  -0.0000012   0.0022316
   32  -0.0000012   0.0022316   0.0001629   0.0004671   0.0141713  -0.0080855
   33   0.0094651   0.0004645  -0.0080855   0.0141713   0.0004671   0.0001629
   34   0.0004671   0.0001629   0.0022316  -0.0000012   0.0094651   0.0004645
   35   0.0004645   0.0094651   0.0141713  -0.0080855   0.0001629   0.0004671
   36   0.0001629   0.0004671  -0.0000012   0.0022316   0.0004645   0.0094651
   37   1.4289984   0.0141807  -0.0079320   0.0024059   0.0003575   0.0001629
   38   0.0141807   1.4289984   0.0024059  -0.0079320   0.0001629   0.0003575
   39  -0.0079320   0.0024059   1.4289984   0.0141807   0.0004684   0.0002695
   40   0.0024059  -0.0079320   0.0141807   1.4289984   0.0002695   0.0004684
   41   0.0003575   0.0001629   0.0004684   0.0002695   1.4289984   0.0141807
   42   0.0001629   0.0003575   0.0002695   0.0004684   0.0141807   1.4289984
   43   0.0004684   0.0002695   0.0003575   0.0001629  -0.0079320   0.0024059
   44   0.0002695   0.0004684   0.0001629   0.0003575   0.0024059  -0.0079320
   45   0.0301817   0.0022325   0.0019728   0.0003569   0.0024018   0.0006338
   46   0.0019728   0.0003569   0.0301817   0.0022325   0.0004693   0.0004921
   47   0.0024018   0.0006338   0.0004693   0.0004921   0.0301817   0.0022325
   48   0.0004693   0.0004921   0.0024018   0.0006338   0.0019728   0.0003569
   49   0.0022325   0.0301817   0.0003569   0.0019728   0.0006338   0.0024018
   50   0.0003569   0.0019728   0.0022325   0.0301817   0.0004921   0.0004693
   51   0.0006338   0.0024018   0.0004921   0.0004693   0.0022325   0.0301817
   52   0.0004921   0.0004693   0.0006338   0.0024018   0.0003569   0.0019728
   53   1.1456244  -0.0109517   0.0024164   0.0022351   0.0004687   0.0003569
   54   0.0004687   0.0003569   0.0000633   0.0002759   1.1456244  -0.0109517
   55  -0.0109517   1.1456244   0.0022351   0.0024164   0.0003569   0.0004687
   56   0.0003569   0.0004687   0.0002759   0.0000633  -0.0109517   1.1456244
   57   0.0024164   0.0022351   1.1456244  -0.0109517   0.0000633   0.0002759
   58   0.0000633   0.0002759   0.0004687   0.0003569   0.0024164   0.0022351
   59   0.0022351   0.0024164  -0.0109517   1.1456244   0.0002759   0.0000633
   60   0.0002759   0.0000633   0.0003569   0.0004687   0.0022351   0.0024164
           19          20          21          22          23          24
    1   0.0002762   0.0002762   0.0085331   0.0024089   0.0003558   0.0023300
    2   0.0001629   0.0001629   0.0024089   0.0085331   0.0023300   0.0003558
    3  -0.0079394  -0.0079394   0.0003558   0.0023300   0.0085331   0.0024089
    4   1.1455080   1.1455080   0.0023300   0.0003558   0.0024089   0.0085331
    5   0.0019784   0.0004676   1.1455079   1.1455079  -0.0079394  -0.0079394
    6   0.0141600   0.0006334  -0.0079394  -0.0079394   1.1455079   1.1455078
    7   0.0004676   0.0019784   0.0001629   0.0001629   0.0002762   0.0002762
    8   0.0006334   0.0141600   0.0002762   0.0002762   0.0001629   0.0001629
    9   0.0003558   0.0023300   0.0141600   0.0006334   0.0141600   0.0006334
   10   0.0023300   0.0003558   0.0019784   0.0004676   0.0019784   0.0004676
   11   0.0085331   0.0024089   0.0006334   0.0141600   0.0006334   0.0141600
   12   0.0024089   0.0085331   0.0004676   0.0019784   0.0004676   0.0019784
   13   0.0000631   0.0000403  -0.0080855   0.0141713   0.0094651   0.0004645
   14   0.0000403   0.0000631   0.0022316  -0.0000012   0.0004671   0.0001629
   15   0.0023297   0.0004907   0.0141713  -0.0080855   0.0004645   0.0094651
   16   0.0004907   0.0023297  -0.0000012   0.0022316   0.0001629   0.0004671
   17   0.0302120   0.0085433   0.0094651   0.0004645  -0.0080855   0.0141713
   18   0.0085433   0.0302120   0.0004671   0.0001629   0.0022316  -0.0000012
   19   3.8555080  -0.0109390   0.0004645   0.0094651   0.0141713  -0.0080855
   20  -0.0109390   3.8555080   0.0001629   0.0004671  -0.0000012   0.0022316
   21   0.0004645   0.0001629   3.8555079  -0.0109389   0.0302120   0.0085433
   22   0.0094651   0.0004671  -0.0109389   3.8555079   0.0085433   0.0302120
   23   0.0141713  -0.0000012   0.0302120   0.0085433   3.8555079  -0.0109389
   24  -0.0080855   0.0022316   0.0085433   0.0302120  -0.0109389   3.8555079
   25   0.0001629   0.0004645   0.0023297   0.0004907   0.0000631   0.0000403
   26   0.0004671   0.0094651   0.0004907   0.0023297   0.0000403   0.0000631
   27  -0.0000012   0.0141713   0.0000631   0.0000403   0.0023297   0.0004907
   28   0.0022316  -0.0080855   0.0000403   0.0000631   0.0004907   0.0023297
   29   0.0004671   0.0001629  -0.0080855   0.0022316   0.0141713  -0.0000012
   30   0.0094651   0.0004645   0.0141713  -0.0000012  -0.0080855   0.0022316
   31   0.0001629   0.0004671   0.0094651   0.0004671   0.0004645   0.0001629
   32   0.0004645   0.0094651   0.0004645   0.0001629   0.0094651   0.0004671
   33   0.0022316  -0.0000012   0.0022316  -0.0080855  -0.0000012   0.0141713
   34  -0.0080855   0.0141713  -0.0000012   0.0141713   0.0022316  -0.0080855
   35  -0.0000012   0.0022316   0.0004671   0.0094651   0.0001629   0.0004645
   36   0.0141713  -0.0080855   0.0001629   0.0004645   0.0004671   0.0094651
   37   0.0004684   0.0002695   1.1456243  -0.0109516   0.0024164   0.0022351
   38   0.0002695   0.0004684   0.0004687   0.0003569   0.0000633   0.0002759
   39   0.0003575   0.0001629  -0.0109516   1.1456243   0.0022351   0.0024164
   40   0.0001629   0.0003575   0.0003569   0.0004687   0.0002759   0.0000633
   41  -0.0079320   0.0024059   0.0024164   0.0022351   1.1456243  -0.0109516
   42   0.0024059  -0.0079320   0.0000633   0.0002759   0.0004687   0.0003569
   43   1.4289984   0.0141807   0.0022351   0.0024164  -0.0109516   1.1456243
   44   0.0141807   1.4289984   0.0002759   0.0000633   0.0003569   0.0004687
   45   0.0004693   0.0004921   1.4289985   0.0141807  -0.0079320   0.0024059
   46   0.0024018   0.0006338   0.0141807   1.4289985   0.0024059  -0.0079320
   47   0.0019728   0.0003569  -0.0079320   0.0024059   1.4289985   0.0141807
   48   0.0301817   0.0022325   0.0024059  -0.0079320   0.0141807   1.4289985
   49   0.0004921   0.0004693   0.0003575   0.0001629   0.0004684   0.0002695
   50   0.0006338   0.0024018   0.0001629   0.0003575   0.0002695   0.0004684
   51   0.0003569   0.0019728   0.0004684   0.0002695   0.0003575   0.0001629
   52   0.0022325   0.0301817   0.0002695   0.0004684   0.0001629   0.0003575
   53   0.0000633   0.0002759   0.0301817   0.0022325   0.0019728   0.0003569
   54   0.0024164   0.0022351   0.0019728   0.0003569   0.0301817   0.0022325
   55   0.0002759   0.0000633   0.0024018   0.0006338   0.0004693   0.0004921
   56   0.0022351   0.0024164   0.0004693   0.0004921   0.0024018   0.0006338
   57   0.0004687   0.0003569   0.0022325   0.0301817   0.0003569   0.0019728
   58   1.1456244  -0.0109517   0.0003569   0.0019728   0.0022325   0.0301817
   59   0.0003569   0.0004687   0.0006338   0.0024018   0.0004921   0.0004693
   60  -0.0109517   1.1456244   0.0004921   0.0004693   0.0006338   0.0024018
           25          26          27          28          29          30
    1   0.0085331   0.0024089   0.0003558   0.0023300   0.0141600   0.0006334
    2   0.0024089   0.0085331   0.0023300   0.0003558   0.0019784   0.0004676
    3   0.0003558   0.0023300   0.0085331   0.0024089   0.0006334   0.0141600
    4   0.0023300   0.0003558   0.0024089   0.0085331   0.0004676   0.0019784
    5   0.0001629   0.0001629   0.0002762   0.0002762   0.0085331   0.0024089
    6   0.0002762   0.0002762   0.0001629   0.0001629   0.0024089   0.0085331
    7   1.1455079   1.1455079  -0.0079394  -0.0079394   0.0003558   0.0023300
    8  -0.0079394  -0.0079394   1.1455079   1.1455079   0.0023300   0.0003558
    9   0.0019784   0.0004676   0.0019784   0.0004676   1.1455079   1.1455079
   10   0.0141600   0.0006334   0.0141600   0.0006334  -0.0079394  -0.0079394
   11   0.0004676   0.0019784   0.0004676   0.0019784   0.0001629   0.0001629
   12   0.0006334   0.0141600   0.0006334   0.0141600   0.0002762   0.0002762
   13   0.0022316  -0.0000012   0.0004671   0.0001629  -0.0080855   0.0022316
   14  -0.0080855   0.0141713   0.0094651   0.0004645   0.0141713  -0.0000012
   15  -0.0000012   0.0022316   0.0001629   0.0004671   0.0094651   0.0004671
   16   0.0141713  -0.0080855   0.0004645   0.0094651   0.0004645   0.0001629
   17   0.0004671   0.0001629   0.0022316  -0.0000012   0.0022316  -0.0080855
   18   0.0094651   0.0004645  -0.0080855   0.0141713  -0.0000012   0.0141713
   19   0.0001629   0.0004671  -0.0000012   0.0022316   0.0004671   0.0094651
   20   0.0004645   0.0094651   0.0141713  -0.0080855   0.0001629   0.0004645
   21   0.0023297   0.0004907   0.0000631   0.0000403  -0.0080855   0.0141713
   22   0.0004907   0.0023297   0.0000403   0.0000631   0.0022316  -0.0000012
   23   0.0000631   0.0000403   0.0023297   0.0004907   0.0141713  -0.0080855
   24   0.0000403   0.0000631   0.0004907   0.0023297  -0.0000012   0.0022316
   25   3.8555079  -0.0109389   0.0302120   0.0085433   0.0094651   0.0004645
   26  -0.0109389   3.8555079   0.0085433   0.0302120   0.0004671   0.0001629
   27   0.0302120   0.0085433   3.8555079  -0.0109389   0.0004645   0.0094651
   28   0.0085433   0.0302120  -0.0109389   3.8555079   0.0001629   0.0004671
   29   0.0094651   0.0004671   0.0004645   0.0001629   3.8555080  -0.0109389
   30   0.0004645   0.0001629   0.0094651   0.0004671  -0.0109389   3.8555080
   31  -0.0080855   0.0022316   0.0141713  -0.0000012   0.0302120   0.0085433
   32   0.0141713  -0.0000012  -0.0080855   0.0022316   0.0085433   0.0302120
   33   0.0004671   0.0094651   0.0001629   0.0004645   0.0023297   0.0004907
   34   0.0001629   0.0004645   0.0004671   0.0094651   0.0004907   0.0023297
   35   0.0022316  -0.0080855  -0.0000012   0.0141713   0.0000631   0.0000403
   36  -0.0000012   0.0141713   0.0022316  -0.0080855   0.0000403   0.0000631
   37   0.0004687   0.0003569   0.0000633   0.0002759   0.0301817   0.0022325
   38   1.1456243  -0.0109516   0.0024164   0.0022351   0.0019728   0.0003569
   39   0.0003569   0.0004687   0.0002759   0.0000633   0.0024018   0.0006338
   40  -0.0109516   1.1456243   0.0022351   0.0024164   0.0004693   0.0004921
   41   0.0000633   0.0002759   0.0004687   0.0003569   0.0022325   0.0301817
   42   0.0024164   0.0022351   1.1456243  -0.0109516   0.0003569   0.0019728
   43   0.0002759   0.0000633   0.0003569   0.0004687   0.0006338   0.0024018
   44   0.0022351   0.0024164  -0.0109516   1.1456243   0.0004921   0.0004693
   45   0.0003575   0.0001629   0.0004684   0.0002695   1.1456244  -0.0109516
   46   0.0001629   0.0003575   0.0002695   0.0004684   0.0004687   0.0003569
   47   0.0004684   0.0002695   0.0003575   0.0001629  -0.0109516   1.1456244
   48   0.0002695   0.0004684   0.0001629   0.0003575   0.0003569   0.0004687
   49   1.4289985   0.0141807  -0.0079320   0.0024059   0.0024164   0.0022351
   50   0.0141807   1.4289985   0.0024059  -0.0079320   0.0000633   0.0002759
   51  -0.0079320   0.0024059   1.4289985   0.0141807   0.0022351   0.0024164
   52   0.0024059  -0.0079320   0.0141807   1.4289985   0.0002759   0.0000633
   53   0.0024018   0.0006338   0.0004693   0.0004921   1.4289985   0.0141807
   54   0.0004693   0.0004921   0.0024018   0.0006338   0.0141807   1.4289985
   55   0.0301817   0.0022325   0.0019728   0.0003569  -0.0079320   0.0024059
   56   0.0019728   0.0003569   0.0301817   0.0022325   0.0024059  -0.0079320
   57   0.0006338   0.0024018   0.0004921   0.0004693   0.0003575   0.0001629
   58   0.0004921   0.0004693   0.0006338   0.0024018   0.0001629   0.0003575
   59   0.0022325   0.0301817   0.0003569   0.0019728   0.0004684   0.0002695
   60   0.0003569   0.0019728   0.0022325   0.0301817   0.0002695   0.0004684
           31          32          33          34          35          36
    1   0.0141600   0.0006334   0.0019784   0.0004676   0.0019784   0.0004676
    2   0.0019784   0.0004676   0.0141600   0.0006334   0.0141600   0.0006334
    3   0.0006334   0.0141600   0.0004676   0.0019784   0.0004676   0.0019784
    4   0.0004676   0.0019784   0.0006334   0.0141600   0.0006334   0.0141600
    5   0.0003558   0.0023300   0.0085331   0.0024089   0.0003558   0.0023300
    6   0.0023300   0.0003558   0.0024089   0.0085331   0.0023300   0.0003558
    7   0.0085331   0.0024089   0.0003558   0.0023300   0.0085331   0.0024089
    8   0.0024089   0.0085331   0.0023300   0.0003558   0.0024089   0.0085331
    9  -0.0079394  -0.0079394   0.0001629   0.0001629   0.0002762   0.0002762
   10   1.1455079   1.1455079   0.0002762   0.0002762   0.0001629   0.0001629
   11   0.0002762   0.0002762   1.1455079   1.1455079  -0.0079394  -0.0079394
   12   0.0001629   0.0001629  -0.0079394  -0.0079394   1.1455079   1.1455079
   13   0.0141713  -0.0000012   0.0094651   0.0004671   0.0004645   0.0001629
   14  -0.0080855   0.0022316   0.0004645   0.0001629   0.0094651   0.0004671
   15   0.0004645   0.0001629  -0.0080855   0.0022316   0.0141713  -0.0000012
   16   0.0094651   0.0004671   0.0141713  -0.0000012  -0.0080855   0.0022316
   17  -0.0000012   0.0141713   0.0004671   0.0094651   0.0001629   0.0004645
   18   0.0022316  -0.0080855   0.0001629   0.0004645   0.0004671   0.0094651
   19   0.0001629   0.0004645   0.0022316  -0.0080855  -0.0000012   0.0141713
   20   0.0004671   0.0094651  -0.0000012   0.0141713   0.0022316  -0.0080855
   21   0.0094651   0.0004645   0.0022316  -0.0000012   0.0004671   0.0001629
   22   0.0004671   0.0001629  -0.0080855   0.0141713   0.0094651   0.0004645
   23   0.0004645   0.0094651  -0.0000012   0.0022316   0.0001629   0.0004671
   24   0.0001629   0.0004671   0.0141713  -0.0080855   0.0004645   0.0094651
   25  -0.0080855   0.0141713   0.0004671   0.0001629   0.0022316  -0.0000012
   26   0.0022316  -0.0000012   0.0094651   0.0004645  -0.0080855   0.0141713
   27   0.0141713  -0.0080855   0.0001629   0.0004671  -0.0000012   0.0022316
   28  -0.0000012   0.0022316   0.0004645   0.0094651   0.0141713  -0.0080855
   29   0.0302120   0.0085433   0.0023297   0.0004907   0.0000631   0.0000403
   30   0.0085433   0.0302120   0.0004907   0.0023297   0.0000403   0.0000631
   31   3.8555080  -0.0109389   0.0000631   0.0000403   0.0023297   0.0004907
   32  -0.0109389   3.8555080   0.0000403   0.0000631   0.0004907   0.0023297
   33   0.0000631   0.0000403   3.8555080  -0.0109389   0.0302120   0.0085433
   34   0.0000403   0.0000631  -0.0109389   3.8555080   0.0085433   0.0302120
   35   0.0023297   0.0004907   0.0302120   0.0085433   3.8555080  -0.0109389
   36   0.0004907   0.0023297   0.0085433   0.0302120  -0.0109389   3.8555080
   37   0.0019728   0.0003569   0.0024018   0.0006338   0.0004693   0.0004921
   38   0.0301817   0.0022325   0.0004693   0.0004921   0.0024018   0.0006338
   39   0.0004693   0.0004921   0.0301817   0.0022325   0.0019728   0.0003569
   40   0.0024018   0.0006338   0.0019728   0.0003569   0.0301817   0.0022325
   41   0.0003569   0.0019728   0.0006338   0.0024018   0.0004921   0.0004693
   42   0.0022325   0.0301817   0.0004921   0.0004693   0.0006338   0.0024018
   43   0.0004921   0.0004693   0.0022325   0.0301817   0.0003569   0.0019728
   44   0.0006338   0.0024018   0.0003569   0.0019728   0.0022325   0.0301817
   45   0.0024164   0.0022351   0.0004687   0.0003569   0.0000633   0.0002759
   46   0.0000633   0.0002759   1.1456244  -0.0109516   0.0024164   0.0022351
   47   0.0022351   0.0024164   0.0003569   0.0004687   0.0002759   0.0000633
   48   0.0002759   0.0000633  -0.0109516   1.1456244   0.0022351   0.0024164
   49   1.1456244  -0.0109516   0.0000633   0.0002759   0.0004687   0.0003569
   50   0.0004687   0.0003569   0.0024164   0.0022351   1.1456244  -0.0109516
   51  -0.0109516   1.1456244   0.0002759   0.0000633   0.0003569   0.0004687
   52   0.0003569   0.0004687   0.0022351   0.0024164  -0.0109516   1.1456244
   53  -0.0079320   0.0024059   0.0003575   0.0001629   0.0004684   0.0002695
   54   0.0024059  -0.0079320   0.0001629   0.0003575   0.0002695   0.0004684
   55   1.4289985   0.0141807   0.0004684   0.0002695   0.0003575   0.0001629
   56   0.0141807   1.4289985   0.0002695   0.0004684   0.0001629   0.0003575
   57   0.0004684   0.0002695   1.4289985   0.0141807  -0.0079320   0.0024059
   58   0.0002695   0.0004684   0.0141807   1.4289985   0.0024059  -0.0079320
   59   0.0003575   0.0001629  -0.0079320   0.0024059   1.4289985   0.0141807
   60   0.0001629   0.0003575   0.0024059  -0.0079320   0.0141807   1.4289985
           37          38          39          40          41          42
    1  -0.0079195  -0.0079195   0.0302342   0.0302342   0.0004918   0.0004918
    2   0.0302342   0.0302342  -0.0079195  -0.0079195   0.0001628   0.0001628
    3   0.0004918   0.0004918   0.0001628   0.0001628  -0.0079195  -0.0079195
    4   0.0001628   0.0001628   0.0004918   0.0004918   0.0302342   0.0302342
    5  -0.0110060   0.0004676  -0.0110060   0.0004676   0.0141744   0.0000633
    6   0.0141744   0.0000633   0.0141744   0.0000633  -0.0110060   0.0004676
    7   0.0004676  -0.0110060   0.0004676  -0.0110060   0.0000633   0.0141744
    8   0.0000633   0.0141744   0.0000633   0.0141744   0.0004676  -0.0110060
    9   0.0023983   0.0094733  -0.0000003   0.0003559   0.0023983   0.0094733
   10   0.0094733   0.0023983   0.0003559  -0.0000003   0.0094733   0.0023983
   11  -0.0000003   0.0003559   0.0023983   0.0094733  -0.0000003   0.0003559
   12   0.0003559  -0.0000003   0.0094733   0.0023983   0.0003559  -0.0000003
   13   1.4289984   0.0141807  -0.0079320   0.0024059   0.0003575   0.0001629
   14   0.0141807   1.4289984   0.0024059  -0.0079320   0.0001629   0.0003575
   15  -0.0079320   0.0024059   1.4289984   0.0141807   0.0004684   0.0002695
   16   0.0024059  -0.0079320   0.0141807   1.4289984   0.0002695   0.0004684
   17   0.0003575   0.0001629   0.0004684   0.0002695   1.4289984   0.0141807
   18   0.0001629   0.0003575   0.0002695   0.0004684   0.0141807   1.4289984
   19   0.0004684   0.0002695   0.0003575   0.0001629  -0.0079320   0.0024059
   20   0.0002695   0.0004684   0.0001629   0.0003575   0.0024059  -0.0079320
   21   1.1456243   0.0004687  -0.0109516   0.0003569   0.0024164   0.0000633
   22  -0.0109516   0.0003569   1.1456243   0.0004687   0.0022351   0.0002759
   23   0.0024164   0.0000633   0.0022351   0.0002759   1.1456243   0.0004687
   24   0.0022351   0.0002759   0.0024164   0.0000633  -0.0109516   0.0003569
   25   0.0004687   1.1456243   0.0003569  -0.0109516   0.0000633   0.0024164
   26   0.0003569  -0.0109516   0.0004687   1.1456243   0.0002759   0.0022351
   27   0.0000633   0.0024164   0.0002759   0.0022351   0.0004687   1.1456243
   28   0.0002759   0.0022351   0.0000633   0.0024164   0.0003569  -0.0109516
   29   0.0301817   0.0019728   0.0024018   0.0004693   0.0022325   0.0003569
   30   0.0022325   0.0003569   0.0006338   0.0004921   0.0301817   0.0019728
   31   0.0019728   0.0301817   0.0004693   0.0024018   0.0003569   0.0022325
   32   0.0003569   0.0022325   0.0004921   0.0006338   0.0019728   0.0301817
   33   0.0024018   0.0004693   0.0301817   0.0019728   0.0006338   0.0004921
   34   0.0006338   0.0004921   0.0022325   0.0003569   0.0024018   0.0004693
   35   0.0004693   0.0024018   0.0019728   0.0301817   0.0004921   0.0006338
   36   0.0004921   0.0006338   0.0003569   0.0022325   0.0004693   0.0024018
   37   3.8555677   0.0019730   1.1454426   0.0094738  -0.0000012   0.0002762
   38   0.0019730   3.8555677   0.0094738   1.1454426   0.0002762  -0.0000012
   39   1.1454426   0.0094738   3.8555677   0.0019730   0.0006354   0.0000406
   40   0.0094738   1.1454426   0.0019730   3.8555677   0.0000406   0.0006354
   41  -0.0000012   0.0002762   0.0006354   0.0000406   3.8555677   0.0019730
   42   0.0002762  -0.0000012   0.0000406   0.0006354   0.0019730   3.8555677
   43   0.0006354   0.0000406  -0.0000012   0.0002762   1.1454426   0.0094738
   44   0.0000406   0.0006354   0.0002762  -0.0000012   0.0094738   1.1454426
   45  -0.0080209   0.0004643   0.0141657   0.0023320   0.0085388   0.0004685
   46   0.0141657   0.0023320  -0.0080209   0.0004643   0.0022339   0.0001629
   47   0.0085388   0.0004685   0.0022339   0.0001629  -0.0080209   0.0004643
   48   0.0022339   0.0001629   0.0085388   0.0004685   0.0141657   0.0023320
   49   0.0004643  -0.0080209   0.0023320   0.0141657   0.0004685   0.0085388
   50   0.0023320   0.0141657   0.0004643  -0.0080209   0.0001629   0.0022339
   51   0.0004685   0.0085388   0.0001629   0.0022339   0.0004643  -0.0080209
   52   0.0001629   0.0022339   0.0004685   0.0085388   0.0023320   0.0141657
   53  -0.0080209   0.0141657   0.0085388   0.0022339   0.0004643   0.0023320
   54   0.0004643   0.0023320   0.0004685   0.0001629  -0.0080209   0.0141657
   55   0.0141657  -0.0080209   0.0022339   0.0085388   0.0023320   0.0004643
   56   0.0023320   0.0004643   0.0001629   0.0004685   0.0141657  -0.0080209
   57   0.0085388   0.0022339  -0.0080209   0.0141657   0.0004685   0.0001629
   58   0.0004685   0.0001629   0.0004643   0.0023320   0.0085388   0.0022339
   59   0.0022339   0.0085388   0.0141657  -0.0080209   0.0001629   0.0004685
   60   0.0001629   0.0004685   0.0023320   0.0004643   0.0022339   0.0085388
           43          44          45          46          47          48
    1   0.0001628   0.0001628   0.0023983   0.0094733  -0.0000003   0.0003559
    2   0.0004918   0.0004918   0.0094733   0.0023983   0.0003559  -0.0000003
    3   0.0302342   0.0302342  -0.0000003   0.0003559   0.0023983   0.0094733
    4  -0.0079195  -0.0079195   0.0003559  -0.0000003   0.0094733   0.0023983
    5   0.0141744   0.0000633  -0.0079194  -0.0079194   0.0302342   0.0302342
    6  -0.0110060   0.0004676   0.0302342   0.0302342  -0.0079194  -0.0079194
    7   0.0000633   0.0141744   0.0004918   0.0004918   0.0001628   0.0001628
    8   0.0004676  -0.0110060   0.0001628   0.0001628   0.0004918   0.0004918
    9  -0.0000003   0.0003559  -0.0110060   0.0004676  -0.0110060   0.0004676
   10   0.0003559  -0.0000003   0.0141744   0.0000633   0.0141744   0.0000633
   11   0.0023983   0.0094733   0.0004676  -0.0110060   0.0004676  -0.0110060
   12   0.0094733   0.0023983   0.0000633   0.0141744   0.0000633   0.0141744
   13   0.0004684   0.0002695   0.0301817   0.0019728   0.0024018   0.0004693
   14   0.0002695   0.0004684   0.0022325   0.0003569   0.0006338   0.0004921
   15   0.0003575   0.0001629   0.0019728   0.0301817   0.0004693   0.0024018
   16   0.0001629   0.0003575   0.0003569   0.0022325   0.0004921   0.0006338
   17  -0.0079320   0.0024059   0.0024018   0.0004693   0.0301817   0.0019728
   18   0.0024059  -0.0079320   0.0006338   0.0004921   0.0022325   0.0003569
   19   1.4289984   0.0141807   0.0004693   0.0024018   0.0019728   0.0301817
   20   0.0141807   1.4289984   0.0004921   0.0006338   0.0003569   0.0022325
   21   0.0022351   0.0002759   1.4289985   0.0141807  -0.0079320   0.0024059
   22   0.0024164   0.0000633   0.0141807   1.4289985   0.0024059  -0.0079320
   23  -0.0109516   0.0003569  -0.0079320   0.0024059   1.4289985   0.0141807
   24   1.1456243   0.0004687   0.0024059  -0.0079320   0.0141807   1.4289985
   25   0.0002759   0.0022351   0.0003575   0.0001629   0.0004684   0.0002695
   26   0.0000633   0.0024164   0.0001629   0.0003575   0.0002695   0.0004684
   27   0.0003569  -0.0109516   0.0004684   0.0002695   0.0003575   0.0001629
   28   0.0004687   1.1456243   0.0002695   0.0004684   0.0001629   0.0003575
   29   0.0006338   0.0004921   1.1456244   0.0004687  -0.0109516   0.0003569
   30   0.0024018   0.0004693  -0.0109516   0.0003569   1.1456244   0.0004687
   31   0.0004921   0.0006338   0.0024164   0.0000633   0.0022351   0.0002759
   32   0.0004693   0.0024018   0.0022351   0.0002759   0.0024164   0.0000633
   33   0.0022325   0.0003569   0.0004687   1.1456244   0.0003569  -0.0109516
   34   0.0301817   0.0019728   0.0003569  -0.0109516   0.0004687   1.1456244
   35   0.0003569   0.0022325   0.0000633   0.0024164   0.0002759   0.0022351
   36   0.0019728   0.0301817   0.0002759   0.0022351   0.0000633   0.0024164
   37   0.0006354   0.0000406  -0.0080209   0.0141657   0.0085388   0.0022339
   38   0.0000406   0.0006354   0.0004643   0.0023320   0.0004685   0.0001629
   39  -0.0000012   0.0002762   0.0141657  -0.0080209   0.0022339   0.0085388
   40   0.0002762  -0.0000012   0.0023320   0.0004643   0.0001629   0.0004685
   41   1.1454426   0.0094738   0.0085388   0.0022339  -0.0080209   0.0141657
   42   0.0094738   1.1454426   0.0004685   0.0001629   0.0004643   0.0023320
   43   3.8555677   0.0019730   0.0022339   0.0085388   0.0141657  -0.0080209
   44   0.0019730   3.8555677   0.0001629   0.0004685   0.0023320   0.0004643
   45   0.0022339   0.0001629   3.8555677   0.0019730   1.1454426   0.0094738
   46   0.0085388   0.0004685   0.0019730   3.8555677   0.0094738   1.1454426
   47   0.0141657   0.0023320   1.1454426   0.0094738   3.8555677   0.0019730
   48  -0.0080209   0.0004643   0.0094738   1.1454426   0.0019730   3.8555677
   49   0.0001629   0.0022339  -0.0000012   0.0002762   0.0006354   0.0000406
   50   0.0004685   0.0085388   0.0002762  -0.0000012   0.0000406   0.0006354
   51   0.0023320   0.0141657   0.0006354   0.0000406  -0.0000012   0.0002762
   52   0.0004643  -0.0080209   0.0000406   0.0006354   0.0002762  -0.0000012
   53   0.0004685   0.0001629  -0.0080209   0.0004643   0.0141657   0.0023320
   54   0.0085388   0.0022339   0.0141657   0.0023320  -0.0080209   0.0004643
   55   0.0001629   0.0004685   0.0085388   0.0004685   0.0022339   0.0001629
   56   0.0022339   0.0085388   0.0022339   0.0001629   0.0085388   0.0004685
   57   0.0004643   0.0023320   0.0004643  -0.0080209   0.0023320   0.0141657
   58  -0.0080209   0.0141657   0.0023320   0.0141657   0.0004643  -0.0080209
   59   0.0023320   0.0004643   0.0004685   0.0085388   0.0001629   0.0022339
   60   0.0141657  -0.0080209   0.0001629   0.0022339   0.0004685   0.0085388
           49          50          51          52          53          54
    1   0.0023983   0.0094733  -0.0000003   0.0003559  -0.0110059   0.0004676
    2   0.0094733   0.0023983   0.0003559  -0.0000003   0.0141744   0.0000633
    3  -0.0000003   0.0003559   0.0023983   0.0094733   0.0004676  -0.0110059
    4   0.0003559  -0.0000003   0.0094733   0.0023983   0.0000633   0.0141744
    5   0.0004918   0.0004918   0.0001628   0.0001628   0.0023983   0.0094733
    6   0.0001628   0.0001628   0.0004918   0.0004918   0.0094733   0.0023983
    7  -0.0079194  -0.0079194   0.0302342   0.0302342  -0.0000003   0.0003559
    8   0.0302342   0.0302342  -0.0079194  -0.0079194   0.0003559  -0.0000003
    9   0.0141744   0.0000633   0.0141744   0.0000633  -0.0079194  -0.0079194
   10  -0.0110060   0.0004676  -0.0110060   0.0004676   0.0302342   0.0302342
   11   0.0000633   0.0141744   0.0000633   0.0141744   0.0004918   0.0004918
   12   0.0004676  -0.0110060   0.0004676  -0.0110060   0.0001628   0.0001628
   13   0.0022325   0.0003569   0.0006338   0.0004921   1.1456244   0.0004687
   14   0.0301817   0.0019728   0.0024018   0.0004693  -0.0109517   0.0003569
   15   0.0003569   0.0022325   0.0004921   0.0006338   0.0024164   0.0000633
   16   0.0019728   0.0301817   0.0004693   0.0024018   0.0022351   0.0002759
   17   0.0006338   0.0004921   0.0022325   0.0003569   0.0004687   1.1456244
   18   0.0024018   0.0004693   0.0301817   0.0019728   0.0003569  -0.0109517
   19   0.0004921   0.0006338   0.0003569   0.0022325   0.0000633   0.0024164
   20   0.0004693   0.0024018   0.0019728   0.0301817   0.0002759   0.0022351
   21   0.0003575   0.0001629   0.0004684   0.0002695   0.0301817   0.0019728
   22   0.0001629   0.0003575   0.0002695   0.0004684   0.0022325   0.0003569
   23   0.0004684   0.0002695   0.0003575   0.0001629   0.0019728   0.0301817
   24   0.0002695   0.0004684   0.0001629   0.0003575   0.0003569   0.0022325
   25   1.4289985   0.0141807  -0.0079320   0.0024059   0.0024018   0.0004693
   26   0.0141807   1.4289985   0.0024059  -0.0079320   0.0006338   0.0004921
   27  -0.0079320   0.0024059   1.4289985   0.0141807   0.0004693   0.0024018
   28   0.0024059  -0.0079320   0.0141807   1.4289985   0.0004921   0.0006338
   29   0.0024164   0.0000633   0.0022351   0.0002759   1.4289985   0.0141807
   30   0.0022351   0.0002759   0.0024164   0.0000633   0.0141807   1.4289985
   31   1.1456244   0.0004687  -0.0109516   0.0003569  -0.0079320   0.0024059
   32  -0.0109516   0.0003569   1.1456244   0.0004687   0.0024059  -0.0079320
   33   0.0000633   0.0024164   0.0002759   0.0022351   0.0003575   0.0001629
   34   0.0002759   0.0022351   0.0000633   0.0024164   0.0001629   0.0003575
   35   0.0004687   1.1456244   0.0003569  -0.0109516   0.0004684   0.0002695
   36   0.0003569  -0.0109516   0.0004687   1.1456244   0.0002695   0.0004684
   37   0.0004643   0.0023320   0.0004685   0.0001629  -0.0080209   0.0004643
   38  -0.0080209   0.0141657   0.0085388   0.0022339   0.0141657   0.0023320
   39   0.0023320   0.0004643   0.0001629   0.0004685   0.0085388   0.0004685
   40   0.0141657  -0.0080209   0.0022339   0.0085388   0.0022339   0.0001629
   41   0.0004685   0.0001629   0.0004643   0.0023320   0.0004643  -0.0080209
   42   0.0085388   0.0022339  -0.0080209   0.0141657   0.0023320   0.0141657
   43   0.0001629   0.0004685   0.0023320   0.0004643   0.0004685   0.0085388
   44   0.0022339   0.0085388   0.0141657  -0.0080209   0.0001629   0.0022339
   45  -0.0000012   0.0002762   0.0006354   0.0000406  -0.0080209   0.0141657
   46   0.0002762  -0.0000012   0.0000406   0.0006354   0.0004643   0.0023320
   47   0.0006354   0.0000406  -0.0000012   0.0002762   0.0141657  -0.0080209
   48   0.0000406   0.0006354   0.0002762  -0.0000012   0.0023320   0.0004643
   49   3.8555677   0.0019730   1.1454426   0.0094738   0.0085388   0.0022339
   50   0.0019730   3.8555677   0.0094738   1.1454426   0.0004685   0.0001629
[...]
 Red. Mass:      12.0000                12.0000                12.0000
 IR Active:          YES                    YES                    YES
 IR Intens:        0.002                  0.002                  0.000
 Raman Active:       YES                    YES                    YES
               X      Y      Z        X      Y      Z        X      Y      Z
 C         -0.000  0.001 -0.004   -0.006  0.004 -0.000    0.000 -0.000 -0.017
 C         -0.000 -0.001 -0.004    0.006  0.004  0.000   -0.000 -0.000  0.017
 C         -0.000 -0.001 -0.004    0.006  0.004  0.000   -0.000 -0.000  0.017
 C         -0.000  0.001 -0.004   -0.006  0.004 -0.000    0.000 -0.000 -0.017
 C          0.267 -0.000 -0.034    0.001 -0.004 -0.000   -0.000 -0.089  0.000
 C         -0.267  0.000 -0.034   -0.001 -0.004 -0.000    0.000  0.089  0.000
 C         -0.267  0.000 -0.034   -0.001 -0.004 -0.000    0.000  0.089  0.000
 C          0.267 -0.000 -0.034    0.001 -0.004 -0.000   -0.000 -0.089  0.000
 C          0.000 -0.006  0.003    0.000 -0.034  0.267    0.107  0.000 -0.000
 C         -0.000  0.006  0.005   -0.000 -0.034 -0.267   -0.107  0.000  0.000
 C         -0.000  0.006  0.005   -0.000 -0.034 -0.267   -0.107  0.000  0.000
 C          0.000 -0.006  0.003    0.000 -0.034  0.267    0.107  0.000 -0.000
 C         -0.022  0.033  0.010    0.044  0.032 -0.125   -0.033  0.034  0.031
 C          0.022 -0.034  0.008    0.044  0.031  0.125    0.033 -0.034  0.031
 C         -0.022 -0.033  0.008   -0.044  0.031  0.125    0.033  0.034 -0.031
 C          0.022  0.034  0.009   -0.044  0.032 -0.125   -0.033 -0.034 -0.031
 C          0.022  0.034  0.009   -0.044  0.032 -0.125   -0.033 -0.034 -0.031
 C         -0.022 -0.033  0.008   -0.044  0.031  0.125    0.033  0.034 -0.031
 C          0.022 -0.034  0.008    0.044  0.031  0.125    0.033 -0.034  0.031
 C         -0.022  0.033  0.010    0.044  0.032 -0.125   -0.033  0.034  0.031
 C         -0.125  0.086  0.012    0.033  0.009 -0.022   -0.072  0.134 -0.026
 C         -0.125 -0.086  0.011   -0.034  0.008  0.022    0.073  0.134  0.026
 C          0.125  0.087  0.011   -0.033  0.009 -0.022   -0.072 -0.134  0.026
 C          0.125 -0.087  0.011    0.034  0.008  0.022    0.072 -0.134 -0.026
 C          0.125 -0.087  0.011    0.034  0.008  0.022    0.072 -0.134 -0.026
 C          0.125  0.087  0.011   -0.033  0.009 -0.022   -0.072 -0.134  0.026
 C         -0.125 -0.086  0.011   -0.034  0.008  0.022    0.073  0.134  0.026
 C         -0.125  0.086  0.012    0.033  0.009 -0.022   -0.072  0.134 -0.026
 C         -0.125  0.044  0.032    0.086  0.012 -0.125   -0.165  0.059  0.039
 C          0.125  0.044  0.032   -0.086  0.011 -0.125   -0.165 -0.059 -0.038
 C          0.124 -0.044  0.031    0.087  0.011  0.125    0.165 -0.059  0.038
 C         -0.124 -0.044  0.031   -0.087  0.011  0.125    0.165  0.059 -0.039
 C         -0.124 -0.044  0.031   -0.087  0.011  0.125    0.165  0.059 -0.039
 C          0.124 -0.044  0.031    0.087  0.011  0.125    0.165 -0.059  0.038
 C          0.125  0.044  0.032   -0.086  0.011 -0.125   -0.165 -0.059 -0.038
 C         -0.125  0.044  0.032    0.086  0.012 -0.125   -0.165  0.059  0.039
 C          0.025 -0.034 -0.014   -0.074 -0.039  0.109    0.037 -0.025 -0.031
 C         -0.024  0.035 -0.013   -0.074 -0.038 -0.109   -0.037  0.026 -0.031
 C          0.025  0.034 -0.013    0.074 -0.038 -0.109   -0.037 -0.026  0.031
 C         -0.025 -0.035 -0.014    0.074 -0.039  0.109    0.037  0.026  0.031
 C         -0.025 -0.035 -0.014    0.074 -0.039  0.109    0.037  0.026  0.031
 C          0.025  0.034 -0.013    0.074 -0.038 -0.109   -0.037 -0.026  0.031
 C         -0.024  0.035 -0.013   -0.074 -0.038 -0.109   -0.037  0.026 -0.031
 C          0.025 -0.034 -0.014   -0.074 -0.039  0.109    0.037 -0.025 -0.031
 C          0.138 -0.073  0.017   -0.034 -0.014  0.025    0.081 -0.109  0.056
 C          0.137  0.073  0.017    0.035 -0.013 -0.025   -0.081 -0.109 -0.056
 C         -0.138 -0.073  0.018    0.034 -0.014  0.025    0.081  0.110 -0.056
 C         -0.138  0.073  0.018   -0.035 -0.013 -0.025   -0.081  0.109  0.056
 C         -0.138  0.073  0.018   -0.035 -0.013 -0.025   -0.081  0.109  0.056
 C         -0.138 -0.073  0.018    0.034 -0.014  0.025    0.081  0.110 -0.056
 C          0.137  0.073  0.017    0.035 -0.013 -0.025   -0.081 -0.109 -0.056
 C          0.138 -0.073  0.017   -0.034 -0.014  0.025    0.081 -0.109  0.056
 C          0.110 -0.074 -0.039   -0.072  0.017  0.137    0.141 -0.092 -0.056
 C         -0.110 -0.074 -0.039    0.073  0.017  0.138    0.141  0.092  0.055
 C         -0.109  0.074 -0.038   -0.074  0.018 -0.138   -0.140  0.092 -0.055
 C          0.109  0.074 -0.038    0.073  0.018 -0.138   -0.141 -0.092  0.056
 C          0.109  0.074 -0.038    0.073  0.018 -0.138   -0.141 -0.092  0.056
 C         -0.109  0.074 -0.038   -0.074  0.018 -0.138   -0.140  0.092 -0.055
 C         -0.110 -0.074 -0.039    0.073  0.017  0.138    0.141  0.092  0.055
 C          0.110 -0.074 -0.039   -0.072  0.017  0.137    0.141 -0.092 -0.056
 TransDip  -0.000  0.000 -0.001    0.000 -0.001 -0.000   -0.000  0.000  0.000

 Mode:               169                    170                    171
 Frequency:      1663.30                1669.48                1669.49
 Force Cnst:     19.5602                19.7058                19.7060
 Red. Mass:      12.0000                12.0000                12.0000
 IR Active:          YES                    YES                    YES
 IR Intens:        0.000                  0.000                  0.000
 Raman Active:       YES                    YES                    YES
               X      Y      Z        X      Y      Z        X      Y      Z
 C         -0.000  0.000 -0.113   -0.000  0.000  0.007    0.000 -0.000 -0.102
 C         -0.000 -0.000  0.113    0.000 -0.000  0.007    0.000  0.000  0.102
 C         -0.000 -0.000  0.113   -0.000  0.000 -0.007   -0.000 -0.000 -0.102
 C         -0.000  0.000 -0.113    0.000 -0.000 -0.007   -0.000  0.000  0.102
 C          0.000  0.071 -0.000    0.002 -0.000 -0.008    0.000  0.007 -0.000
 C         -0.000 -0.071  0.000    0.002  0.000  0.008   -0.000  0.007 -0.000
 C         -0.000 -0.071  0.000   -0.002 -0.000 -0.008    0.000 -0.007  0.000
 C          0.000  0.071 -0.000   -0.002  0.000  0.008   -0.000 -0.007  0.000
 C          0.042  0.000 -0.000   -0.102  0.000 -0.000   -0.000 -0.008  0.002
 C         -0.042  0.000  0.000    0.102  0.000  0.000    0.000  0.008  0.002
 C         -0.042  0.000  0.000   -0.102 -0.000 -0.000   -0.000 -0.008 -0.002
 C          0.042  0.000 -0.000    0.102 -0.000  0.000    0.000  0.008 -0.002
 C         -0.049 -0.064  0.173    0.029 -0.038 -0.017   -0.060 -0.031  0.158
 C          0.049  0.064  0.172   -0.029  0.038 -0.017    0.060  0.031  0.158
 C          0.049 -0.064 -0.172    0.029  0.038 -0.017    0.060 -0.031 -0.158
 C         -0.049  0.064 -0.172   -0.029 -0.038 -0.017   -0.060  0.031 -0.158
 C         -0.049  0.064 -0.172    0.029  0.038  0.017    0.060 -0.031  0.158
 C          0.049 -0.064 -0.172   -0.029 -0.038  0.017   -0.060  0.031  0.158
 C          0.049  0.064  0.172    0.029 -0.038  0.017   -0.060 -0.031 -0.158
 C         -0.049 -0.064  0.173   -0.029  0.038  0.017    0.060  0.031 -0.158
 C          0.003 -0.113  0.053    0.079 -0.147  0.029   -0.038 -0.017  0.029
 C         -0.003 -0.113 -0.053    0.079  0.147  0.029    0.038 -0.017 -0.029
 C          0.003  0.113 -0.053    0.079  0.147 -0.029    0.038 -0.017  0.029
 C         -0.003  0.113  0.053    0.079 -0.147 -0.029   -0.038 -0.017 -0.029
 C         -0.003  0.113  0.053   -0.079  0.147  0.029    0.038  0.017  0.029
 C          0.003  0.113 -0.053   -0.079 -0.147  0.029   -0.038  0.017 -0.029
 C         -0.003 -0.113 -0.053   -0.079 -0.147 -0.029   -0.038  0.017  0.029
 C          0.003 -0.113  0.053   -0.079  0.147 -0.029    0.038  0.017 -0.029
 C         -0.059 -0.004  0.061    0.158 -0.060 -0.031   -0.147  0.029  0.079
 C         -0.059  0.004 -0.061    0.158  0.060  0.031    0.147  0.029  0.079
 C          0.059  0.004  0.061   -0.158  0.060 -0.031    0.147 -0.029  0.079
 C          0.059 -0.004 -0.061   -0.158 -0.060  0.030   -0.147 -0.029  0.079
 C          0.059 -0.004 -0.061    0.158  0.060 -0.030    0.147  0.029 -0.079
 C          0.059  0.004  0.061    0.158 -0.060  0.031   -0.147  0.029 -0.079
 C         -0.059  0.004 -0.061   -0.158 -0.060 -0.031   -0.147 -0.029 -0.079
 C         -0.059 -0.004  0.061   -0.158  0.060  0.031    0.147 -0.029 -0.079
 C          0.085  0.079 -0.144   -0.031  0.036  0.019    0.090  0.049 -0.135
 C         -0.085 -0.079 -0.144    0.031 -0.036  0.018   -0.090 -0.049 -0.135
 C         -0.085  0.079  0.144   -0.031 -0.036  0.018   -0.090  0.049  0.135
 C          0.085 -0.079  0.144    0.031  0.036  0.018    0.090 -0.049  0.135
 C          0.085 -0.079  0.144   -0.031 -0.036 -0.018   -0.090  0.049 -0.135
 C         -0.085  0.079  0.144    0.031  0.036 -0.018    0.090 -0.049 -0.135
 C         -0.085 -0.079 -0.144   -0.031  0.036 -0.018    0.090  0.049  0.135
 C          0.085  0.079 -0.144    0.031 -0.036 -0.019   -0.090 -0.049  0.135
 C         -0.017  0.099 -0.075   -0.085  0.126 -0.066    0.036  0.018 -0.031
 C          0.017  0.099  0.074   -0.085 -0.126 -0.067   -0.036  0.018  0.031
 C         -0.017 -0.099  0.075   -0.085 -0.126  0.066   -0.036  0.018 -0.031
 C          0.017 -0.099 -0.074   -0.085  0.126  0.067    0.036  0.019  0.031
 C          0.017 -0.099 -0.074    0.085 -0.126 -0.067   -0.036 -0.019 -0.031
 C         -0.017 -0.099  0.075    0.085  0.126 -0.066    0.036 -0.018  0.031
 C          0.017  0.099  0.074    0.085  0.126  0.067    0.036 -0.018 -0.031
 C         -0.017  0.099 -0.075    0.085 -0.126  0.066   -0.036 -0.018  0.031
 C          0.045 -0.011 -0.062   -0.135  0.090  0.049    0.126 -0.066 -0.085
 C          0.045  0.011  0.062   -0.135 -0.090 -0.049   -0.126 -0.066 -0.085
 C         -0.045  0.011 -0.062    0.135 -0.090  0.049   -0.126  0.066 -0.085
 C         -0.045 -0.011  0.062    0.135  0.090 -0.049    0.126  0.067 -0.085
 C         -0.045 -0.011  0.062   -0.135 -0.090  0.049   -0.126 -0.067  0.085
 C         -0.045  0.011 -0.062   -0.135  0.090 -0.049    0.126 -0.066  0.085
 C          0.045  0.011  0.062    0.135  0.090  0.049    0.126  0.066  0.085
 C          0.045 -0.011 -0.062    0.135 -0.090 -0.049   -0.126  0.066  0.085
 TransDip  -0.000  0.000 -0.000    0.000 -0.000 -0.000    0.000  0.000  0.000

 Mode:               172                    173                    174
 Frequency:      1669.49                1669.89                1669.89
 Force Cnst:     19.7061                19.7154                19.7156
 Red. Mass:      12.0000                12.0000                12.0000
 IR Active:          YES                    YES                    YES
 IR Intens:        0.000                  0.000                  0.000
 Raman Active:       YES                    YES                    YES
               X      Y      Z        X      Y      Z        X      Y      Z
 C         -0.008  0.002  0.000    0.034 -0.270  0.000   -0.000  0.003  0.000
 C          0.008  0.002 -0.000    0.035  0.270 -0.000   -0.000 -0.003 -0.000
 C         -0.008 -0.002  0.000   -0.035 -0.270  0.000    0.000  0.003  0.000
 C          0.008 -0.002 -0.000   -0.034  0.270 -0.000    0.000 -0.003 -0.000
 C          0.000 -0.102  0.000    0.137 -0.000 -0.017    0.232  0.000 -0.030
 C         -0.000  0.102 -0.000   -0.137  0.000 -0.017   -0.232 -0.000 -0.030
 C          0.000 -0.102  0.000    0.137 -0.000  0.017    0.232  0.000  0.030
 C         -0.000  0.102 -0.000   -0.137  0.000  0.017   -0.232 -0.000  0.030
 C          0.007  0.000 -0.000   -0.000 -0.017  0.132    0.000  0.030 -0.235
 C          0.007 -0.000  0.000    0.000 -0.017 -0.132   -0.000  0.030  0.235
 C         -0.007  0.000 -0.000   -0.000  0.017  0.132    0.000 -0.030 -0.235
 C         -0.007 -0.000  0.000    0.000  0.017 -0.132   -0.000 -0.030  0.235
 C          0.029  0.079 -0.147    0.000  0.112 -0.093   -0.016  0.028  0.003
 C          0.029  0.079  0.147    0.000  0.112  0.093   -0.016  0.028 -0.003
 C         -0.029  0.079  0.147    0.000 -0.112 -0.093   -0.016 -0.028  0.003
 C         -0.029  0.079 -0.147    0.000 -0.112  0.093   -0.016 -0.028 -0.003
 C          0.029 -0.079  0.147   -0.000  0.112 -0.093    0.016  0.028  0.003
 C          0.029 -0.079 -0.147   -0.000  0.112  0.093    0.016  0.028 -0.003
 C         -0.029 -0.079 -0.147   -0.000 -0.112 -0.093    0.016 -0.028  0.003
 C         -0.029 -0.079  0.147   -0.000 -0.112  0.093    0.016 -0.028 -0.003
 C         -0.031  0.158 -0.060   -0.032  0.049 -0.014   -0.111  0.079  0.008
 C          0.030  0.158  0.060   -0.032 -0.049 -0.014   -0.111 -0.079  0.008
 C         -0.031 -0.158  0.060    0.032  0.049 -0.014    0.111  0.079  0.008
 C          0.030 -0.158 -0.060    0.032 -0.049 -0.014    0.111 -0.079  0.008
 C         -0.030  0.158  0.060   -0.032  0.049  0.014   -0.111  0.079 -0.008
 C          0.031  0.158 -0.060   -0.032 -0.049  0.014   -0.111 -0.079 -0.008
 C         -0.030 -0.158 -0.060    0.032  0.049  0.014    0.111  0.079 -0.008
 C          0.031 -0.158  0.060    0.032 -0.049  0.014    0.111 -0.079 -0.008
 C         -0.017  0.029 -0.038    0.044  0.014 -0.080   -0.082  0.008  0.083
 C         -0.017 -0.029  0.038   -0.044  0.014 -0.080    0.082  0.008  0.083
 C         -0.017  0.029  0.038    0.044  0.014  0.080   -0.082  0.008 -0.083
 C         -0.017 -0.029 -0.038   -0.044  0.014  0.080    0.082  0.008 -0.083
 C          0.017  0.029  0.038    0.044 -0.014 -0.080   -0.082 -0.008  0.083
 C          0.017 -0.029 -0.038   -0.044 -0.014 -0.080    0.082 -0.008  0.083
 C          0.017  0.029 -0.038    0.044 -0.014  0.080   -0.082 -0.008 -0.083
 C          0.017 -0.029  0.038   -0.044 -0.014  0.080    0.082 -0.008 -0.083
 C         -0.066 -0.085  0.126   -0.029 -0.124  0.079    0.021 -0.035 -0.008
 C         -0.066 -0.085 -0.126   -0.029 -0.124 -0.079    0.021 -0.035  0.008
 C          0.067 -0.085 -0.126   -0.029  0.124  0.079    0.021  0.035 -0.008
 C          0.066 -0.085  0.126   -0.029  0.124 -0.079    0.021  0.035  0.008
 C         -0.066  0.085 -0.126    0.029 -0.124  0.079   -0.021 -0.035 -0.008
 C         -0.067  0.085  0.126    0.029 -0.124 -0.079   -0.021 -0.035  0.008
 C          0.066  0.085  0.126    0.029  0.124  0.079   -0.021  0.035 -0.008
 C          0.066  0.085 -0.126    0.029  0.124 -0.079   -0.021  0.035  0.008
 C          0.049 -0.135  0.090    0.031 -0.046  0.033    0.125 -0.064  0.015
 C         -0.049 -0.135 -0.090    0.031  0.046  0.033    0.125  0.064  0.015
 C          0.049  0.135 -0.090   -0.031 -0.046  0.033   -0.125 -0.064  0.015
 C         -0.049  0.135  0.090   -0.031  0.046  0.033   -0.125  0.064  0.015
 C          0.049 -0.135 -0.090    0.031 -0.046 -0.033    0.125 -0.064 -0.015
 C         -0.049 -0.135  0.090    0.031  0.046 -0.033    0.125  0.064 -0.015
 C          0.049  0.135  0.090   -0.031 -0.046 -0.033   -0.125 -0.064 -0.015
 C         -0.049  0.135 -0.090   -0.031  0.046 -0.033   -0.125  0.064 -0.015
 C          0.018 -0.031  0.036   -0.033 -0.003  0.092    0.072 -0.036 -0.089
 C          0.019  0.031 -0.036    0.033 -0.003  0.092   -0.072 -0.036 -0.089
 C          0.018 -0.031 -0.036   -0.033 -0.003 -0.092    0.072 -0.036  0.089
 C          0.018  0.031  0.036    0.033 -0.003 -0.092   -0.072 -0.036  0.089
 C         -0.018 -0.031 -0.036   -0.033  0.003  0.092    0.072  0.036 -0.089
 C         -0.018  0.031  0.036    0.033  0.003  0.092   -0.072  0.036 -0.089
 C         -0.019 -0.031  0.036   -0.033  0.003 -0.092    0.072  0.036  0.089
 C         -0.018  0.031 -0.036    0.033  0.003 -0.092   -0.072  0.036  0.089
 TransDip  -0.000  0.000  0.000   -0.000 -0.000 -0.000    0.000 -0.000 -0.000

 STANDARD THERMODYNAMIC QUANTITIES AT   298.15 K  AND     1.00 ATM

   This Molecule has  0 Imaginary Frequencies
   Zero point vibrational energy:      242.618 kcal/mol

   Atom    1 Element C  Has Mass   12.00000
   Atom    2 Element C  Has Mass   12.00000
   Atom    3 Element C  Has Mass   12.00000
   Atom    4 Element C  Has Mass   12.00000
   Atom    5 Element C  Has Mass   12.00000
   Atom    6 Element C  Has Mass   12.00000
   Atom    7 Element C  Has Mass   12.00000
   Atom    8 Element C  Has Mass   12.00000
   Atom    9 Element C  Has Mass   12.00000
   Atom   10 Element C  Has Mass   12.00000
   Atom   11 Element C  Has Mass   12.00000
   Atom   12 Element C  Has Mass   12.00000
   Atom   13 Element C  Has Mass   12.00000
   Atom   14 Element C  Has Mass   12.00000
   Atom   15 Element C  Has Mass   12.00000
   Atom   16 Element C  Has Mass   12.00000
   Atom   17 Element C  Has Mass   12.00000
   Atom   18 Element C  Has Mass   12.00000
   Atom   19 Element C  Has Mass   12.00000
   Atom   20 Element C  Has Mass   12.00000
   Atom   21 Element C  Has Mass   12.00000
   Atom   22 Element C  Has Mass   12.00000
   Atom   23 Element C  Has Mass   12.00000
   Atom   24 Element C  Has Mass   12.00000
   Atom   25 Element C  Has Mass   12.00000
   Atom   26 Element C  Has Mass   12.00000
   Atom   27 Element C  Has Mass   12.00000
   Atom   28 Element C  Has Mass   12.00000
   Atom   29 Element C  Has Mass   12.00000
   Atom   30 Element C  Has Mass   12.00000
   Atom   31 Element C  Has Mass   12.00000
   Atom   32 Element C  Has Mass   12.00000
   Atom   33 Element C  Has Mass   12.00000
   Atom   34 Element C  Has Mass   12.00000
   Atom   35 Element C  Has Mass   12.00000
   Atom   36 Element C  Has Mass   12.00000
   Atom   37 Element C  Has Mass   12.00000
   Atom   38 Element C  Has Mass   12.00000
   Atom   39 Element C  Has Mass   12.00000
   Atom   40 Element C  Has Mass   12.00000
   Atom   41 Element C  Has Mass   12.00000
   Atom   42 Element C  Has Mass   12.00000
   Atom   43 Element C  Has Mass   12.00000
   Atom   44 Element C  Has Mass   12.00000
   Atom   45 Element C  Has Mass   12.00000
   Atom   46 Element C  Has Mass   12.00000
   Atom   47 Element C  Has Mass   12.00000
   Atom   48 Element C  Has Mass   12.00000
   Atom   49 Element C  Has Mass   12.00000
   Atom   50 Element C  Has Mass   12.00000
   Atom   51 Element C  Has Mass   12.00000
   Atom   52 Element C  Has Mass   12.00000
   Atom   53 Element C  Has Mass   12.00000
   Atom   54 Element C  Has Mass   12.00000
   Atom   55 Element C  Has Mass   12.00000
   Atom   56 Element C  Has Mass   12.00000
   Atom   57 Element C  Has Mass   12.00000
   Atom   58 Element C  Has Mass   12.00000
   Atom   59 Element C  Has Mass   12.00000
   Atom   60 Element C  Has Mass   12.00000
   Molecular Mass:   720.000000 amu
   Principal axes and moments of inertia in amu*Bohr^2:
                             1           2           3
    Eigenvalues --    21618.60122 21618.60137 21618.60159
          X               0.99754     0.06959     0.00841
          Y              -0.07009     0.99032     0.11978
          Z               0.00000    -0.12008     0.99276
   Rotational Symmetry Number is   1
   The Molecule is an Asymmetric Top
   Translational Enthalpy:        0.889 kcal/mol
   Rotational Enthalpy:           0.889 kcal/mol
   Vibrational Enthalpy:        253.179 kcal/mol
   gas constant (RT):             0.592 kcal/mol
   Translational Entropy:        45.602  cal/mol.K
   Rotational Entropy:           37.555  cal/mol.K
   Vibrational Entropy:          49.676  cal/mol.K

   Total Enthalpy:              255.549 kcal/mol
   Total Entropy:               132.834  cal/mol.K
 Total job time:  14724.38s(wall), 98516.71s(cpu) 
 Sat Dec 17 04:19:45 2022

        *************************************************************
        *                                                           *
        *  Thank you very much for using Q-Chem.  Have a nice day.  *
        *                                                           *
        *************************************************************


